+ 0 1 4 cbr 210 ------- 1 1.0 2.0 0 0
- 0 1 4 cbr 210 ------- 1 1.0 2.0 0 0
+ 0 0 4 tcp 40 ------- 2 0.0 3.0 0 1
- 0 0 4 tcp 40 ------- 2 0.0 3.0 0 1
+ 0.005 1 4 cbr 210 ------- 1 1.0 2.0 1 2
- 0.005 1 4 cbr 210 ------- 1 1.0 2.0 1 2
+ 0.01 1 4 cbr 210 ------- 1 1.0 2.0 2 3
- 0.01 1 4 cbr 210 ------- 1 1.0 2.0 2 3
r 0.01032 0 4 tcp 40 ------- 2 0.0 3.0 0 1
+ 0.01032 4 3 tcp 40 ------- 2 0.0 3.0 0 1
- 0.01032 4 3 tcp 40 ------- 2 0.0 3.0 0 1
r 0.01168 1 4 cbr 210 ------- 1 1.0 2.0 0 0
+ 0.01168 4 2 cbr 210 ------- 1 1.0 2.0 0 0
- 0.01168 4 2 cbr 210 ------- 1 1.0 2.0 0 0
+ 0.015 1 4 cbr 210 ------- 1 1.0 2.0 3 4
- 0.015 1 4 cbr 210 ------- 1 1.0 2.0 3 4
r 0.01668 1 4 cbr 210 ------- 1 1.0 2.0 1 2
+ 0.01668 4 2 cbr 210 ------- 1 1.0 2.0 1 2
- 0.01668 4 2 cbr 210 ------- 1 1.0 2.0 1 2
+ 0.02 1 4 cbr 210 ------- 1 1.0 2.0 4 5
- 0.02 1 4 cbr 210 ------- 1 1.0 2.0 4 5
r 0.02064 4 3 tcp 40 ------- 2 0.0 3.0 0 1
+ 0.02064 3 4 ack 40 ------- 2 3.0 0.0 0 6
- 0.02064 3 4 ack 40 ------- 2 3.0 0.0 0 6
r 0.02168 1 4 cbr 210 ------- 1 1.0 2.0 2 3
+ 0.02168 4 2 cbr 210 ------- 1 1.0 2.0 2 3
- 0.02168 4 2 cbr 210 ------- 1 1.0 2.0 2 3
r 0.02336 4 2 cbr 210 ------- 1 1.0 2.0 0 0
+ 0.025 1 4 cbr 210 ------- 1 1.0 2.0 5 7
- 0.025 1 4 cbr 210 ------- 1 1.0 2.0 5 7
r 0.02668 1 4 cbr 210 ------- 1 1.0 2.0 3 4
+ 0.02668 4 2 cbr 210 ------- 1 1.0 2.0 3 4
- 0.02668 4 2 cbr 210 ------- 1 1.0 2.0 3 4
r 0.02836 4 2 cbr 210 ------- 1 1.0 2.0 1 2
+ 0.03 1 4 cbr 210 ------- 1 1.0 2.0 6 8
- 0.03 1 4 cbr 210 ------- 1 1.0 2.0 6 8
r 0.03096 3 4 ack 40 ------- 2 3.0 0.0 0 6
+ 0.03096 4 0 ack 40 ------- 2 3.0 0.0 0 6
- 0.03096 4 0 ack 40 ------- 2 3.0 0.0 0 6
r 0.03168 1 4 cbr 210 ------- 1 1.0 2.0 4 5
+ 0.03168 4 2 cbr 210 ------- 1 1.0 2.0 4 5
- 0.03168 4 2 cbr 210 ------- 1 1.0 2.0 4 5
r 0.03336 4 2 cbr 210 ------- 1 1.0 2.0 2 3
+ 0.035 1 4 cbr 210 ------- 1 1.0 2.0 7 9
- 0.035 1 4 cbr 210 ------- 1 1.0 2.0 7 9
r 0.03668 1 4 cbr 210 ------- 1 1.0 2.0 5 7
+ 0.03668 4 2 cbr 210 ------- 1 1.0 2.0 5 7
- 0.03668 4 2 cbr 210 ------- 1 1.0 2.0 5 7
r 0.03836 4 2 cbr 210 ------- 1 1.0 2.0 3 4
+ 0.04 1 4 cbr 210 ------- 1 1.0 2.0 8 10
- 0.04 1 4 cbr 210 ------- 1 1.0 2.0 8 10
r 0.04128 4 0 ack 40 ------- 2 3.0 0.0 0 6
+ 0.04128 0 4 tcp 1040 ------- 2 0.0 3.0 1 11
- 0.04128 0 4 tcp 1040 ------- 2 0.0 3.0 1 11
+ 0.04128 0 4 tcp 1040 ------- 2 0.0 3.0 2 12
r 0.04168 1 4 cbr 210 ------- 1 1.0 2.0 6 8
+ 0.04168 4 2 cbr 210 ------- 1 1.0 2.0 6 8
- 0.04168 4 2 cbr 210 ------- 1 1.0 2.0 6 8
r 0.04336 4 2 cbr 210 ------- 1 1.0 2.0 4 5
+ 0.045 1 4 cbr 210 ------- 1 1.0 2.0 9 13
- 0.045 1 4 cbr 210 ------- 1 1.0 2.0 9 13
r 0.04668 1 4 cbr 210 ------- 1 1.0 2.0 7 9
+ 0.04668 4 2 cbr 210 ------- 1 1.0 2.0 7 9
- 0.04668 4 2 cbr 210 ------- 1 1.0 2.0 7 9
r 0.04836 4 2 cbr 210 ------- 1 1.0 2.0 5 7
- 0.0496 0 4 tcp 1040 ------- 2 0.0 3.0 2 12
+ 0.05 1 4 cbr 210 ------- 1 1.0 2.0 10 14
- 0.05 1 4 cbr 210 ------- 1 1.0 2.0 10 14
r 0.05168 1 4 cbr 210 ------- 1 1.0 2.0 8 10
+ 0.05168 4 2 cbr 210 ------- 1 1.0 2.0 8 10
- 0.05168 4 2 cbr 210 ------- 1 1.0 2.0 8 10
r 0.05336 4 2 cbr 210 ------- 1 1.0 2.0 6 8
+ 0.055 1 4 cbr 210 ------- 1 1.0 2.0 11 15
- 0.055 1 4 cbr 210 ------- 1 1.0 2.0 11 15
r 0.05668 1 4 cbr 210 ------- 1 1.0 2.0 9 13
+ 0.05668 4 2 cbr 210 ------- 1 1.0 2.0 9 13
- 0.05668 4 2 cbr 210 ------- 1 1.0 2.0 9 13
r 0.05836 4 2 cbr 210 ------- 1 1.0 2.0 7 9
r 0.0596 0 4 tcp 1040 ------- 2 0.0 3.0 1 11
+ 0.0596 4 3 tcp 1040 ------- 2 0.0 3.0 1 11
- 0.0596 4 3 tcp 1040 ------- 2 0.0 3.0 1 11
+ 0.06 1 4 cbr 210 ------- 1 1.0 2.0 12 16
- 0.06 1 4 cbr 210 ------- 1 1.0 2.0 12 16
r 0.06168 1 4 cbr 210 ------- 1 1.0 2.0 10 14
+ 0.06168 4 2 cbr 210 ------- 1 1.0 2.0 10 14
- 0.06168 4 2 cbr 210 ------- 1 1.0 2.0 10 14
r 0.06336 4 2 cbr 210 ------- 1 1.0 2.0 8 10
+ 0.065 1 4 cbr 210 ------- 1 1.0 2.0 13 17
- 0.065 1 4 cbr 210 ------- 1 1.0 2.0 13 17
r 0.06668 1 4 cbr 210 ------- 1 1.0 2.0 11 15
+ 0.06668 4 2 cbr 210 ------- 1 1.0 2.0 11 15
- 0.06668 4 2 cbr 210 ------- 1 1.0 2.0 11 15
r 0.06792 0 4 tcp 1040 ------- 2 0.0 3.0 2 12
+ 0.06792 4 3 tcp 1040 ------- 2 0.0 3.0 2 12
- 0.06792 4 3 tcp 1040 ------- 2 0.0 3.0 2 12
r 0.06836 4 2 cbr 210 ------- 1 1.0 2.0 9 13
+ 0.07 1 4 cbr 210 ------- 1 1.0 2.0 14 18
- 0.07 1 4 cbr 210 ------- 1 1.0 2.0 14 18
r 0.07168 1 4 cbr 210 ------- 1 1.0 2.0 12 16
+ 0.07168 4 2 cbr 210 ------- 1 1.0 2.0 12 16
- 0.07168 4 2 cbr 210 ------- 1 1.0 2.0 12 16
r 0.07336 4 2 cbr 210 ------- 1 1.0 2.0 10 14
+ 0.075 1 4 cbr 210 ------- 1 1.0 2.0 15 19
- 0.075 1 4 cbr 210 ------- 1 1.0 2.0 15 19
r 0.07668 1 4 cbr 210 ------- 1 1.0 2.0 13 17
+ 0.07668 4 2 cbr 210 ------- 1 1.0 2.0 13 17
- 0.07668 4 2 cbr 210 ------- 1 1.0 2.0 13 17
r 0.07792 4 3 tcp 1040 ------- 2 0.0 3.0 1 11
+ 0.07792 3 4 ack 40 ------- 2 3.0 0.0 1 20
- 0.07792 3 4 ack 40 ------- 2 3.0 0.0 1 20
r 0.07836 4 2 cbr 210 ------- 1 1.0 2.0 11 15
+ 0.08 1 4 cbr 210 ------- 1 1.0 2.0 16 21
- 0.08 1 4 cbr 210 ------- 1 1.0 2.0 16 21
r 0.08168 1 4 cbr 210 ------- 1 1.0 2.0 14 18
+ 0.08168 4 2 cbr 210 ------- 1 1.0 2.0 14 18
- 0.08168 4 2 cbr 210 ------- 1 1.0 2.0 14 18
r 0.08336 4 2 cbr 210 ------- 1 1.0 2.0 12 16
+ 0.085 1 4 cbr 210 ------- 1 1.0 2.0 17 22
- 0.085 1 4 cbr 210 ------- 1 1.0 2.0 17 22
r 0.08624 4 3 tcp 1040 ------- 2 0.0 3.0 2 12
+ 0.08624 3 4 ack 40 ------- 2 3.0 0.0 2 23
- 0.08624 3 4 ack 40 ------- 2 3.0 0.0 2 23
r 0.08668 1 4 cbr 210 ------- 1 1.0 2.0 15 19
+ 0.08668 4 2 cbr 210 ------- 1 1.0 2.0 15 19
- 0.08668 4 2 cbr 210 ------- 1 1.0 2.0 15 19
r 0.08824 3 4 ack 40 ------- 2 3.0 0.0 1 20
+ 0.08824 4 0 ack 40 ------- 2 3.0 0.0 1 20
- 0.08824 4 0 ack 40 ------- 2 3.0 0.0 1 20
r 0.08836 4 2 cbr 210 ------- 1 1.0 2.0 13 17
+ 0.09 1 4 cbr 210 ------- 1 1.0 2.0 18 24
- 0.09 1 4 cbr 210 ------- 1 1.0 2.0 18 24
r 0.09168 1 4 cbr 210 ------- 1 1.0 2.0 16 21
+ 0.09168 4 2 cbr 210 ------- 1 1.0 2.0 16 21
- 0.09168 4 2 cbr 210 ------- 1 1.0 2.0 16 21
r 0.09336 4 2 cbr 210 ------- 1 1.0 2.0 14 18
+ 0.095 1 4 cbr 210 ------- 1 1.0 2.0 19 25
- 0.095 1 4 cbr 210 ------- 1 1.0 2.0 19 25
r 0.09656 3 4 ack 40 ------- 2 3.0 0.0 2 23
+ 0.09656 4 0 ack 40 ------- 2 3.0 0.0 2 23
- 0.09656 4 0 ack 40 ------- 2 3.0 0.0 2 23
r 0.09668 1 4 cbr 210 ------- 1 1.0 2.0 17 22
+ 0.09668 4 2 cbr 210 ------- 1 1.0 2.0 17 22
- 0.09668 4 2 cbr 210 ------- 1 1.0 2.0 17 22
r 0.09836 4 2 cbr 210 ------- 1 1.0 2.0 15 19
r 0.09856 4 0 ack 40 ------- 2 3.0 0.0 1 20
+ 0.09856 0 4 tcp 1040 ------- 2 0.0 3.0 3 26
- 0.09856 0 4 tcp 1040 ------- 2 0.0 3.0 3 26
+ 0.09856 0 4 tcp 1040 ------- 2 0.0 3.0 4 27
+ 0.1 1 4 cbr 210 ------- 1 1.0 2.0 20 28
- 0.1 1 4 cbr 210 ------- 1 1.0 2.0 20 28
r 0.10168 1 4 cbr 210 ------- 1 1.0 2.0 18 24
+ 0.10168 4 2 cbr 210 ------- 1 1.0 2.0 18 24
- 0.10168 4 2 cbr 210 ------- 1 1.0 2.0 18 24
r 0.10336 4 2 cbr 210 ------- 1 1.0 2.0 16 21
+ 0.105 1 4 cbr 210 ------- 1 1.0 2.0 21 29
- 0.105 1 4 cbr 210 ------- 1 1.0 2.0 21 29
r 0.10668 1 4 cbr 210 ------- 1 1.0 2.0 19 25
+ 0.10668 4 2 cbr 210 ------- 1 1.0 2.0 19 25
- 0.10668 4 2 cbr 210 ------- 1 1.0 2.0 19 25
- 0.10688 0 4 tcp 1040 ------- 2 0.0 3.0 4 27
r 0.10688 4 0 ack 40 ------- 2 3.0 0.0 2 23
+ 0.10688 0 4 tcp 1040 ------- 2 0.0 3.0 5 30
+ 0.10688 0 4 tcp 1040 ------- 2 0.0 3.0 6 31
r 0.10836 4 2 cbr 210 ------- 1 1.0 2.0 17 22
+ 0.11 1 4 cbr 210 ------- 1 1.0 2.0 22 32
- 0.11 1 4 cbr 210 ------- 1 1.0 2.0 22 32
r 0.11168 1 4 cbr 210 ------- 1 1.0 2.0 20 28
+ 0.11168 4 2 cbr 210 ------- 1 1.0 2.0 20 28
- 0.11168 4 2 cbr 210 ------- 1 1.0 2.0 20 28
r 0.11336 4 2 cbr 210 ------- 1 1.0 2.0 18 24
+ 0.115 1 4 cbr 210 ------- 1 1.0 2.0 23 33
- 0.115 1 4 cbr 210 ------- 1 1.0 2.0 23 33
- 0.1152 0 4 tcp 1040 ------- 2 0.0 3.0 5 30
r 0.11668 1 4 cbr 210 ------- 1 1.0 2.0 21 29
+ 0.11668 4 2 cbr 210 ------- 1 1.0 2.0 21 29
- 0.11668 4 2 cbr 210 ------- 1 1.0 2.0 21 29
r 0.11688 0 4 tcp 1040 ------- 2 0.0 3.0 3 26
+ 0.11688 4 3 tcp 1040 ------- 2 0.0 3.0 3 26
- 0.11688 4 3 tcp 1040 ------- 2 0.0 3.0 3 26
r 0.11836 4 2 cbr 210 ------- 1 1.0 2.0 19 25
+ 0.12 1 4 cbr 210 ------- 1 1.0 2.0 24 34
- 0.12 1 4 cbr 210 ------- 1 1.0 2.0 24 34
r 0.12168 1 4 cbr 210 ------- 1 1.0 2.0 22 32
+ 0.12168 4 2 cbr 210 ------- 1 1.0 2.0 22 32
- 0.12168 4 2 cbr 210 ------- 1 1.0 2.0 22 32
r 0.12336 4 2 cbr 210 ------- 1 1.0 2.0 20 28
- 0.12352 0 4 tcp 1040 ------- 2 0.0 3.0 6 31
+ 0.125 1 4 cbr 210 ------- 1 1.0 2.0 25 35
- 0.125 1 4 cbr 210 ------- 1 1.0 2.0 25 35
r 0.1252 0 4 tcp 1040 ------- 2 0.0 3.0 4 27
+ 0.1252 4 3 tcp 1040 ------- 2 0.0 3.0 4 27
- 0.1252 4 3 tcp 1040 ------- 2 0.0 3.0 4 27
r 0.12668 1 4 cbr 210 ------- 1 1.0 2.0 23 33
+ 0.12668 4 2 cbr 210 ------- 1 1.0 2.0 23 33
- 0.12668 4 2 cbr 210 ------- 1 1.0 2.0 23 33
r 0.12836 4 2 cbr 210 ------- 1 1.0 2.0 21 29
+ 0.13 1 4 cbr 210 ------- 1 1.0 2.0 26 36
- 0.13 1 4 cbr 210 ------- 1 1.0 2.0 26 36
r 0.13168 1 4 cbr 210 ------- 1 1.0 2.0 24 34
+ 0.13168 4 2 cbr 210 ------- 1 1.0 2.0 24 34
- 0.13168 4 2 cbr 210 ------- 1 1.0 2.0 24 34
r 0.13336 4 2 cbr 210 ------- 1 1.0 2.0 22 32
r 0.13352 0 4 tcp 1040 ------- 2 0.0 3.0 5 30
+ 0.13352 4 3 tcp 1040 ------- 2 0.0 3.0 5 30
- 0.13352 4 3 tcp 1040 ------- 2 0.0 3.0 5 30
+ 0.135 1 4 cbr 210 ------- 1 1.0 2.0 27 37
- 0.135 1 4 cbr 210 ------- 1 1.0 2.0 27 37
r 0.1352 4 3 tcp 1040 ------- 2 0.0 3.0 3 26
+ 0.1352 3 4 ack 40 ------- 2 3.0 0.0 3 38
- 0.1352 3 4 ack 40 ------- 2 3.0 0.0 3 38
r 0.13668 1 4 cbr 210 ------- 1 1.0 2.0 25 35
+ 0.13668 4 2 cbr 210 ------- 1 1.0 2.0 25 35
- 0.13668 4 2 cbr 210 ------- 1 1.0 2.0 25 35
r 0.13836 4 2 cbr 210 ------- 1 1.0 2.0 23 33
+ 0.14 1 4 cbr 210 ------- 1 1.0 2.0 28 39
- 0.14 1 4 cbr 210 ------- 1 1.0 2.0 28 39
r 0.14168 1 4 cbr 210 ------- 1 1.0 2.0 26 36
+ 0.14168 4 2 cbr 210 ------- 1 1.0 2.0 26 36
- 0.14168 4 2 cbr 210 ------- 1 1.0 2.0 26 36
r 0.14184 0 4 tcp 1040 ------- 2 0.0 3.0 6 31
+ 0.14184 4 3 tcp 1040 ------- 2 0.0 3.0 6 31
- 0.14184 4 3 tcp 1040 ------- 2 0.0 3.0 6 31
r 0.14336 4 2 cbr 210 ------- 1 1.0 2.0 24 34
r 0.14352 4 3 tcp 1040 ------- 2 0.0 3.0 4 27
+ 0.14352 3 4 ack 40 ------- 2 3.0 0.0 4 40
- 0.14352 3 4 ack 40 ------- 2 3.0 0.0 4 40
+ 0.145 1 4 cbr 210 ------- 1 1.0 2.0 29 41
- 0.145 1 4 cbr 210 ------- 1 1.0 2.0 29 41
r 0.14552 3 4 ack 40 ------- 2 3.0 0.0 3 38
+ 0.14552 4 0 ack 40 ------- 2 3.0 0.0 3 38
- 0.14552 4 0 ack 40 ------- 2 3.0 0.0 3 38
r 0.14668 1 4 cbr 210 ------- 1 1.0 2.0 27 37
+ 0.14668 4 2 cbr 210 ------- 1 1.0 2.0 27 37
- 0.14668 4 2 cbr 210 ------- 1 1.0 2.0 27 37
r 0.14836 4 2 cbr 210 ------- 1 1.0 2.0 25 35
+ 0.15 1 4 cbr 210 ------- 1 1.0 2.0 30 42
- 0.15 1 4 cbr 210 ------- 1 1.0 2.0 30 42
r 0.15168 1 4 cbr 210 ------- 1 1.0 2.0 28 39
+ 0.15168 4 2 cbr 210 ------- 1 1.0 2.0 28 39
- 0.15168 4 2 cbr 210 ------- 1 1.0 2.0 28 39
r 0.15184 4 3 tcp 1040 ------- 2 0.0 3.0 5 30
+ 0.15184 3 4 ack 40 ------- 2 3.0 0.0 5 43
- 0.15184 3 4 ack 40 ------- 2 3.0 0.0 5 43
r 0.15336 4 2 cbr 210 ------- 1 1.0 2.0 26 36
r 0.15384 3 4 ack 40 ------- 2 3.0 0.0 4 40
+ 0.15384 4 0 ack 40 ------- 2 3.0 0.0 4 40
- 0.15384 4 0 ack 40 ------- 2 3.0 0.0 4 40
+ 0.155 1 4 cbr 210 ------- 1 1.0 2.0 31 44
- 0.155 1 4 cbr 210 ------- 1 1.0 2.0 31 44
r 0.15584 4 0 ack 40 ------- 2 3.0 0.0 3 38
+ 0.15584 0 4 tcp 1040 ------- 2 0.0 3.0 7 45
- 0.15584 0 4 tcp 1040 ------- 2 0.0 3.0 7 45
+ 0.15584 0 4 tcp 1040 ------- 2 0.0 3.0 8 46
r 0.15668 1 4 cbr 210 ------- 1 1.0 2.0 29 41
+ 0.15668 4 2 cbr 210 ------- 1 1.0 2.0 29 41
- 0.15668 4 2 cbr 210 ------- 1 1.0 2.0 29 41
r 0.15836 4 2 cbr 210 ------- 1 1.0 2.0 27 37
+ 0.16 1 4 cbr 210 ------- 1 1.0 2.0 32 47
- 0.16 1 4 cbr 210 ------- 1 1.0 2.0 32 47
r 0.16016 4 3 tcp 1040 ------- 2 0.0 3.0 6 31
+ 0.16016 3 4 ack 40 ------- 2 3.0 0.0 6 48
- 0.16016 3 4 ack 40 ------- 2 3.0 0.0 6 48
r 0.16168 1 4 cbr 210 ------- 1 1.0 2.0 30 42
+ 0.16168 4 2 cbr 210 ------- 1 1.0 2.0 30 42
- 0.16168 4 2 cbr 210 ------- 1 1.0 2.0 30 42
r 0.16216 3 4 ack 40 ------- 2 3.0 0.0 5 43
+ 0.16216 4 0 ack 40 ------- 2 3.0 0.0 5 43
- 0.16216 4 0 ack 40 ------- 2 3.0 0.0 5 43
r 0.16336 4 2 cbr 210 ------- 1 1.0 2.0 28 39
- 0.16416 0 4 tcp 1040 ------- 2 0.0 3.0 8 46
r 0.16416 4 0 ack 40 ------- 2 3.0 0.0 4 40
+ 0.16416 0 4 tcp 1040 ------- 2 0.0 3.0 9 49
+ 0.16416 0 4 tcp 1040 ------- 2 0.0 3.0 10 50
+ 0.165 1 4 cbr 210 ------- 1 1.0 2.0 33 51
- 0.165 1 4 cbr 210 ------- 1 1.0 2.0 33 51
r 0.16668 1 4 cbr 210 ------- 1 1.0 2.0 31 44
+ 0.16668 4 2 cbr 210 ------- 1 1.0 2.0 31 44
- 0.16668 4 2 cbr 210 ------- 1 1.0 2.0 31 44
r 0.16836 4 2 cbr 210 ------- 1 1.0 2.0 29 41
+ 0.17 1 4 cbr 210 ------- 1 1.0 2.0 34 52
- 0.17 1 4 cbr 210 ------- 1 1.0 2.0 34 52
r 0.17048 3 4 ack 40 ------- 2 3.0 0.0 6 48
+ 0.17048 4 0 ack 40 ------- 2 3.0 0.0 6 48
- 0.17048 4 0 ack 40 ------- 2 3.0 0.0 6 48
r 0.17168 1 4 cbr 210 ------- 1 1.0 2.0 32 47
+ 0.17168 4 2 cbr 210 ------- 1 1.0 2.0 32 47
- 0.17168 4 2 cbr 210 ------- 1 1.0 2.0 32 47
- 0.17248 0 4 tcp 1040 ------- 2 0.0 3.0 9 49
r 0.17248 4 0 ack 40 ------- 2 3.0 0.0 5 43
+ 0.17248 0 4 tcp 1040 ------- 2 0.0 3.0 11 53
+ 0.17248 0 4 tcp 1040 ------- 2 0.0 3.0 12 54
r 0.17336 4 2 cbr 210 ------- 1 1.0 2.0 30 42
r 0.17416 0 4 tcp 1040 ------- 2 0.0 3.0 7 45
+ 0.17416 4 3 tcp 1040 ------- 2 0.0 3.0 7 45
- 0.17416 4 3 tcp 1040 ------- 2 0.0 3.0 7 45
+ 0.175 1 4 cbr 210 ------- 1 1.0 2.0 35 55
- 0.175 1 4 cbr 210 ------- 1 1.0 2.0 35 55
r 0.17668 1 4 cbr 210 ------- 1 1.0 2.0 33 51
+ 0.17668 4 2 cbr 210 ------- 1 1.0 2.0 33 51
- 0.17668 4 2 cbr 210 ------- 1 1.0 2.0 33 51
r 0.17836 4 2 cbr 210 ------- 1 1.0 2.0 31 44
+ 0.18 1 4 cbr 210 ------- 1 1.0 2.0 36 56
- 0.18 1 4 cbr 210 ------- 1 1.0 2.0 36 56
- 0.1808 0 4 tcp 1040 ------- 2 0.0 3.0 10 50
r 0.1808 4 0 ack 40 ------- 2 3.0 0.0 6 48
+ 0.1808 0 4 tcp 1040 ------- 2 0.0 3.0 13 57
+ 0.1808 0 4 tcp 1040 ------- 2 0.0 3.0 14 58
r 0.18168 1 4 cbr 210 ------- 1 1.0 2.0 34 52
+ 0.18168 4 2 cbr 210 ------- 1 1.0 2.0 34 52
- 0.18168 4 2 cbr 210 ------- 1 1.0 2.0 34 52
r 0.18248 0 4 tcp 1040 ------- 2 0.0 3.0 8 46
+ 0.18248 4 3 tcp 1040 ------- 2 0.0 3.0 8 46
- 0.18248 4 3 tcp 1040 ------- 2 0.0 3.0 8 46
r 0.18336 4 2 cbr 210 ------- 1 1.0 2.0 32 47
+ 0.185 1 4 cbr 210 ------- 1 1.0 2.0 37 59
- 0.185 1 4 cbr 210 ------- 1 1.0 2.0 37 59
r 0.18668 1 4 cbr 210 ------- 1 1.0 2.0 35 55
+ 0.18668 4 2 cbr 210 ------- 1 1.0 2.0 35 55
- 0.18668 4 2 cbr 210 ------- 1 1.0 2.0 35 55
r 0.18836 4 2 cbr 210 ------- 1 1.0 2.0 33 51
- 0.18912 0 4 tcp 1040 ------- 2 0.0 3.0 11 53
+ 0.19 1 4 cbr 210 ------- 1 1.0 2.0 38 60
- 0.19 1 4 cbr 210 ------- 1 1.0 2.0 38 60
r 0.1908 0 4 tcp 1040 ------- 2 0.0 3.0 9 49
+ 0.1908 4 3 tcp 1040 ------- 2 0.0 3.0 9 49
- 0.1908 4 3 tcp 1040 ------- 2 0.0 3.0 9 49
r 0.19168 1 4 cbr 210 ------- 1 1.0 2.0 36 56
+ 0.19168 4 2 cbr 210 ------- 1 1.0 2.0 36 56
- 0.19168 4 2 cbr 210 ------- 1 1.0 2.0 36 56
r 0.19248 4 3 tcp 1040 ------- 2 0.0 3.0 7 45
+ 0.19248 3 4 ack 40 ------- 2 3.0 0.0 7 61
- 0.19248 3 4 ack 40 ------- 2 3.0 0.0 7 61
r 0.19336 4 2 cbr 210 ------- 1 1.0 2.0 34 52
+ 0.195 1 4 cbr 210 ------- 1 1.0 2.0 39 62
- 0.195 1 4 cbr 210 ------- 1 1.0 2.0 39 62
r 0.19668 1 4 cbr 210 ------- 1 1.0 2.0 37 59
+ 0.19668 4 2 cbr 210 ------- 1 1.0 2.0 37 59
- 0.19668 4 2 cbr 210 ------- 1 1.0 2.0 37 59
- 0.19744 0 4 tcp 1040 ------- 2 0.0 3.0 12 54
r 0.19836 4 2 cbr 210 ------- 1 1.0 2.0 35 55
r 0.19912 0 4 tcp 1040 ------- 2 0.0 3.0 10 50
+ 0.19912 4 3 tcp 1040 ------- 2 0.0 3.0 10 50
- 0.19912 4 3 tcp 1040 ------- 2 0.0 3.0 10 50
+ 0.2 1 4 cbr 210 ------- 1 1.0 2.0 40 63
- 0.2 1 4 cbr 210 ------- 1 1.0 2.0 40 63
r 0.2008 4 3 tcp 1040 ------- 2 0.0 3.0 8 46
+ 0.2008 3 4 ack 40 ------- 2 3.0 0.0 8 64
- 0.2008 3 4 ack 40 ------- 2 3.0 0.0 8 64
r 0.20168 1 4 cbr 210 ------- 1 1.0 2.0 38 60
+ 0.20168 4 2 cbr 210 ------- 1 1.0 2.0 38 60
- 0.20168 4 2 cbr 210 ------- 1 1.0 2.0 38 60
r 0.2028 3 4 ack 40 ------- 2 3.0 0.0 7 61
+ 0.2028 4 0 ack 40 ------- 2 3.0 0.0 7 61
- 0.2028 4 0 ack 40 ------- 2 3.0 0.0 7 61
r 0.20336 4 2 cbr 210 ------- 1 1.0 2.0 36 56
+ 0.205 1 4 cbr 210 ------- 1 1.0 2.0 41 65
- 0.205 1 4 cbr 210 ------- 1 1.0 2.0 41 65
- 0.20576 0 4 tcp 1040 ------- 2 0.0 3.0 13 57
r 0.20668 1 4 cbr 210 ------- 1 1.0 2.0 39 62
+ 0.20668 4 2 cbr 210 ------- 1 1.0 2.0 39 62
- 0.20668 4 2 cbr 210 ------- 1 1.0 2.0 39 62
r 0.20744 0 4 tcp 1040 ------- 2 0.0 3.0 11 53
+ 0.20744 4 3 tcp 1040 ------- 2 0.0 3.0 11 53
- 0.20744 4 3 tcp 1040 ------- 2 0.0 3.0 11 53
r 0.20836 4 2 cbr 210 ------- 1 1.0 2.0 37 59
r 0.20912 4 3 tcp 1040 ------- 2 0.0 3.0 9 49
+ 0.20912 3 4 ack 40 ------- 2 3.0 0.0 9 66
- 0.20912 3 4 ack 40 ------- 2 3.0 0.0 9 66
+ 0.21 1 4 cbr 210 ------- 1 1.0 2.0 42 67
- 0.21 1 4 cbr 210 ------- 1 1.0 2.0 42 67
r 0.21112 3 4 ack 40 ------- 2 3.0 0.0 8 64
+ 0.21112 4 0 ack 40 ------- 2 3.0 0.0 8 64
- 0.21112 4 0 ack 40 ------- 2 3.0 0.0 8 64
r 0.21168 1 4 cbr 210 ------- 1 1.0 2.0 40 63
+ 0.21168 4 2 cbr 210 ------- 1 1.0 2.0 40 63
- 0.21168 4 2 cbr 210 ------- 1 1.0 2.0 40 63
r 0.21312 4 0 ack 40 ------- 2 3.0 0.0 7 61
+ 0.21312 0 4 tcp 1040 ------- 2 0.0 3.0 15 68
+ 0.21312 0 4 tcp 1040 ------- 2 0.0 3.0 16 69
r 0.21336 4 2 cbr 210 ------- 1 1.0 2.0 38 60
- 0.21408 0 4 tcp 1040 ------- 2 0.0 3.0 14 58
+ 0.215 1 4 cbr 210 ------- 1 1.0 2.0 43 70
- 0.215 1 4 cbr 210 ------- 1 1.0 2.0 43 70
r 0.21576 0 4 tcp 1040 ------- 2 0.0 3.0 12 54
+ 0.21576 4 3 tcp 1040 ------- 2 0.0 3.0 12 54
- 0.21576 4 3 tcp 1040 ------- 2 0.0 3.0 12 54
r 0.21668 1 4 cbr 210 ------- 1 1.0 2.0 41 65
+ 0.21668 4 2 cbr 210 ------- 1 1.0 2.0 41 65
- 0.21668 4 2 cbr 210 ------- 1 1.0 2.0 41 65
r 0.21744 4 3 tcp 1040 ------- 2 0.0 3.0 10 50
+ 0.21744 3 4 ack 40 ------- 2 3.0 0.0 10 71
- 0.21744 3 4 ack 40 ------- 2 3.0 0.0 10 71
r 0.21836 4 2 cbr 210 ------- 1 1.0 2.0 39 62
r 0.21944 3 4 ack 40 ------- 2 3.0 0.0 9 66
+ 0.21944 4 0 ack 40 ------- 2 3.0 0.0 9 66
- 0.21944 4 0 ack 40 ------- 2 3.0 0.0 9 66
+ 0.22 1 4 cbr 210 ------- 1 1.0 2.0 44 72
- 0.22 1 4 cbr 210 ------- 1 1.0 2.0 44 72
r 0.22144 4 0 ack 40 ------- 2 3.0 0.0 8 64
+ 0.22144 0 4 tcp 1040 ------- 2 0.0 3.0 17 73
+ 0.22144 0 4 tcp 1040 ------- 2 0.0 3.0 18 74
r 0.22168 1 4 cbr 210 ------- 1 1.0 2.0 42 67
+ 0.22168 4 2 cbr 210 ------- 1 1.0 2.0 42 67
- 0.22168 4 2 cbr 210 ------- 1 1.0 2.0 42 67
- 0.2224 0 4 tcp 1040 ------- 2 0.0 3.0 15 68
r 0.22336 4 2 cbr 210 ------- 1 1.0 2.0 40 63
r 0.22408 0 4 tcp 1040 ------- 2 0.0 3.0 13 57
+ 0.22408 4 3 tcp 1040 ------- 2 0.0 3.0 13 57
- 0.22408 4 3 tcp 1040 ------- 2 0.0 3.0 13 57
+ 0.225 1 4 cbr 210 ------- 1 1.0 2.0 45 75
- 0.225 1 4 cbr 210 ------- 1 1.0 2.0 45 75
r 0.22576 4 3 tcp 1040 ------- 2 0.0 3.0 11 53
+ 0.22576 3 4 ack 40 ------- 2 3.0 0.0 11 76
- 0.22576 3 4 ack 40 ------- 2 3.0 0.0 11 76
r 0.22668 1 4 cbr 210 ------- 1 1.0 2.0 43 70
+ 0.22668 4 2 cbr 210 ------- 1 1.0 2.0 43 70
- 0.22668 4 2 cbr 210 ------- 1 1.0 2.0 43 70
r 0.22776 3 4 ack 40 ------- 2 3.0 0.0 10 71
+ 0.22776 4 0 ack 40 ------- 2 3.0 0.0 10 71
- 0.22776 4 0 ack 40 ------- 2 3.0 0.0 10 71
r 0.22836 4 2 cbr 210 ------- 1 1.0 2.0 41 65
r 0.22976 4 0 ack 40 ------- 2 3.0 0.0 9 66
+ 0.22976 0 4 tcp 1040 ------- 2 0.0 3.0 19 77
+ 0.22976 0 4 tcp 1040 ------- 2 0.0 3.0 20 78
+ 0.23 1 4 cbr 210 ------- 1 1.0 2.0 46 79
- 0.23 1 4 cbr 210 ------- 1 1.0 2.0 46 79
- 0.23072 0 4 tcp 1040 ------- 2 0.0 3.0 16 69
r 0.23168 1 4 cbr 210 ------- 1 1.0 2.0 44 72
+ 0.23168 4 2 cbr 210 ------- 1 1.0 2.0 44 72
- 0.23168 4 2 cbr 210 ------- 1 1.0 2.0 44 72
r 0.2324 0 4 tcp 1040 ------- 2 0.0 3.0 14 58
+ 0.2324 4 3 tcp 1040 ------- 2 0.0 3.0 14 58
- 0.2324 4 3 tcp 1040 ------- 2 0.0 3.0 14 58
r 0.23336 4 2 cbr 210 ------- 1 1.0 2.0 42 67
r 0.23408 4 3 tcp 1040 ------- 2 0.0 3.0 12 54
+ 0.23408 3 4 ack 40 ------- 2 3.0 0.0 12 80
- 0.23408 3 4 ack 40 ------- 2 3.0 0.0 12 80
+ 0.235 1 4 cbr 210 ------- 1 1.0 2.0 47 81
- 0.235 1 4 cbr 210 ------- 1 1.0 2.0 47 81
r 0.23608 3 4 ack 40 ------- 2 3.0 0.0 11 76
+ 0.23608 4 0 ack 40 ------- 2 3.0 0.0 11 76
- 0.23608 4 0 ack 40 ------- 2 3.0 0.0 11 76
r 0.23668 1 4 cbr 210 ------- 1 1.0 2.0 45 75
+ 0.23668 4 2 cbr 210 ------- 1 1.0 2.0 45 75
- 0.23668 4 2 cbr 210 ------- 1 1.0 2.0 45 75
r 0.23808 4 0 ack 40 ------- 2 3.0 0.0 10 71
+ 0.23808 0 4 tcp 1040 ------- 2 0.0 3.0 21 82
+ 0.23808 0 4 tcp 1040 ------- 2 0.0 3.0 22 83
r 0.23836 4 2 cbr 210 ------- 1 1.0 2.0 43 70
- 0.23904 0 4 tcp 1040 ------- 2 0.0 3.0 17 73
+ 0.24 1 4 cbr 210 ------- 1 1.0 2.0 48 84
- 0.24 1 4 cbr 210 ------- 1 1.0 2.0 48 84
r 0.24072 0 4 tcp 1040 ------- 2 0.0 3.0 15 68
+ 0.24072 4 3 tcp 1040 ------- 2 0.0 3.0 15 68
- 0.24072 4 3 tcp 1040 ------- 2 0.0 3.0 15 68
r 0.24168 1 4 cbr 210 ------- 1 1.0 2.0 46 79
+ 0.24168 4 2 cbr 210 ------- 1 1.0 2.0 46 79
- 0.24168 4 2 cbr 210 ------- 1 1.0 2.0 46 79
r 0.2424 4 3 tcp 1040 ------- 2 0.0 3.0 13 57
+ 0.2424 3 4 ack 40 ------- 2 3.0 0.0 13 85
- 0.2424 3 4 ack 40 ------- 2 3.0 0.0 13 85
r 0.24336 4 2 cbr 210 ------- 1 1.0 2.0 44 72
r 0.2444 3 4 ack 40 ------- 2 3.0 0.0 12 80
+ 0.2444 4 0 ack 40 ------- 2 3.0 0.0 12 80
- 0.2444 4 0 ack 40 ------- 2 3.0 0.0 12 80
+ 0.245 1 4 cbr 210 ------- 1 1.0 2.0 49 86
- 0.245 1 4 cbr 210 ------- 1 1.0 2.0 49 86
r 0.2464 4 0 ack 40 ------- 2 3.0 0.0 11 76
+ 0.2464 0 4 tcp 1040 ------- 2 0.0 3.0 23 87
+ 0.2464 0 4 tcp 1040 ------- 2 0.0 3.0 24 88
r 0.24668 1 4 cbr 210 ------- 1 1.0 2.0 47 81
+ 0.24668 4 2 cbr 210 ------- 1 1.0 2.0 47 81
- 0.24668 4 2 cbr 210 ------- 1 1.0 2.0 47 81
- 0.24736 0 4 tcp 1040 ------- 2 0.0 3.0 18 74
r 0.24836 4 2 cbr 210 ------- 1 1.0 2.0 45 75
r 0.24904 0 4 tcp 1040 ------- 2 0.0 3.0 16 69
+ 0.24904 4 3 tcp 1040 ------- 2 0.0 3.0 16 69
- 0.24904 4 3 tcp 1040 ------- 2 0.0 3.0 16 69
+ 0.25 1 4 cbr 210 ------- 1 1.0 2.0 50 89
- 0.25 1 4 cbr 210 ------- 1 1.0 2.0 50 89
r 0.25072 4 3 tcp 1040 ------- 2 0.0 3.0 14 58
+ 0.25072 3 4 ack 40 ------- 2 3.0 0.0 14 90
- 0.25072 3 4 ack 40 ------- 2 3.0 0.0 14 90
r 0.25168 1 4 cbr 210 ------- 1 1.0 2.0 48 84
+ 0.25168 4 2 cbr 210 ------- 1 1.0 2.0 48 84
- 0.25168 4 2 cbr 210 ------- 1 1.0 2.0 48 84
r 0.25272 3 4 ack 40 ------- 2 3.0 0.0 13 85
+ 0.25272 4 0 ack 40 ------- 2 3.0 0.0 13 85
- 0.25272 4 0 ack 40 ------- 2 3.0 0.0 13 85
r 0.25336 4 2 cbr 210 ------- 1 1.0 2.0 46 79
r 0.25472 4 0 ack 40 ------- 2 3.0 0.0 12 80
+ 0.25472 0 4 tcp 1040 ------- 2 0.0 3.0 25 91
+ 0.25472 0 4 tcp 1040 ------- 2 0.0 3.0 26 92
+ 0.255 1 4 cbr 210 ------- 1 1.0 2.0 51 93
- 0.255 1 4 cbr 210 ------- 1 1.0 2.0 51 93
- 0.25568 0 4 tcp 1040 ------- 2 0.0 3.0 19 77
r 0.25668 1 4 cbr 210 ------- 1 1.0 2.0 49 86
+ 0.25668 4 2 cbr 210 ------- 1 1.0 2.0 49 86
- 0.25668 4 2 cbr 210 ------- 1 1.0 2.0 49 86
r 0.25736 0 4 tcp 1040 ------- 2 0.0 3.0 17 73
+ 0.25736 4 3 tcp 1040 ------- 2 0.0 3.0 17 73
- 0.25736 4 3 tcp 1040 ------- 2 0.0 3.0 17 73
r 0.25836 4 2 cbr 210 ------- 1 1.0 2.0 47 81
r 0.25904 4 3 tcp 1040 ------- 2 0.0 3.0 15 68
+ 0.25904 3 4 ack 40 ------- 2 3.0 0.0 15 94
- 0.25904 3 4 ack 40 ------- 2 3.0 0.0 15 94
+ 0.26 1 4 cbr 210 ------- 1 1.0 2.0 52 95
- 0.26 1 4 cbr 210 ------- 1 1.0 2.0 52 95
r 0.26104 3 4 ack 40 ------- 2 3.0 0.0 14 90
+ 0.26104 4 0 ack 40 ------- 2 3.0 0.0 14 90
- 0.26104 4 0 ack 40 ------- 2 3.0 0.0 14 90
r 0.26168 1 4 cbr 210 ------- 1 1.0 2.0 50 89
+ 0.26168 4 2 cbr 210 ------- 1 1.0 2.0 50 89
- 0.26168 4 2 cbr 210 ------- 1 1.0 2.0 50 89
r 0.26304 4 0 ack 40 ------- 2 3.0 0.0 13 85
+ 0.26304 0 4 tcp 1040 ------- 2 0.0 3.0 27 96
+ 0.26304 0 4 tcp 1040 ------- 2 0.0 3.0 28 97
r 0.26336 4 2 cbr 210 ------- 1 1.0 2.0 48 84
- 0.264 0 4 tcp 1040 ------- 2 0.0 3.0 20 78
+ 0.265 1 4 cbr 210 ------- 1 1.0 2.0 53 98
- 0.265 1 4 cbr 210 ------- 1 1.0 2.0 53 98
r 0.26568 0 4 tcp 1040 ------- 2 0.0 3.0 18 74
+ 0.26568 4 3 tcp 1040 ------- 2 0.0 3.0 18 74
- 0.26568 4 3 tcp 1040 ------- 2 0.0 3.0 18 74
r 0.26668 1 4 cbr 210 ------- 1 1.0 2.0 51 93
+ 0.26668 4 2 cbr 210 ------- 1 1.0 2.0 51 93
- 0.26668 4 2 cbr 210 ------- 1 1.0 2.0 51 93
r 0.26736 4 3 tcp 1040 ------- 2 0.0 3.0 16 69
+ 0.26736 3 4 ack 40 ------- 2 3.0 0.0 16 99
- 0.26736 3 4 ack 40 ------- 2 3.0 0.0 16 99
r 0.26836 4 2 cbr 210 ------- 1 1.0 2.0 49 86
r 0.26936 3 4 ack 40 ------- 2 3.0 0.0 15 94
+ 0.26936 4 0 ack 40 ------- 2 3.0 0.0 15 94
- 0.26936 4 0 ack 40 ------- 2 3.0 0.0 15 94
+ 0.27 1 4 cbr 210 ------- 1 1.0 2.0 54 100
- 0.27 1 4 cbr 210 ------- 1 1.0 2.0 54 100
r 0.27136 4 0 ack 40 ------- 2 3.0 0.0 14 90
+ 0.27136 0 4 tcp 1040 ------- 2 0.0 3.0 29 101
+ 0.27136 0 4 tcp 1040 ------- 2 0.0 3.0 30 102
r 0.27168 1 4 cbr 210 ------- 1 1.0 2.0 52 95
+ 0.27168 4 2 cbr 210 ------- 1 1.0 2.0 52 95
- 0.27168 4 2 cbr 210 ------- 1 1.0 2.0 52 95
- 0.27232 0 4 tcp 1040 ------- 2 0.0 3.0 21 82
r 0.27336 4 2 cbr 210 ------- 1 1.0 2.0 50 89
r 0.274 0 4 tcp 1040 ------- 2 0.0 3.0 19 77
+ 0.274 4 3 tcp 1040 ------- 2 0.0 3.0 19 77
- 0.274 4 3 tcp 1040 ------- 2 0.0 3.0 19 77
+ 0.275 1 4 cbr 210 ------- 1 1.0 2.0 55 103
- 0.275 1 4 cbr 210 ------- 1 1.0 2.0 55 103
r 0.27568 4 3 tcp 1040 ------- 2 0.0 3.0 17 73
+ 0.27568 3 4 ack 40 ------- 2 3.0 0.0 17 104
- 0.27568 3 4 ack 40 ------- 2 3.0 0.0 17 104
r 0.27668 1 4 cbr 210 ------- 1 1.0 2.0 53 98
+ 0.27668 4 2 cbr 210 ------- 1 1.0 2.0 53 98
- 0.27668 4 2 cbr 210 ------- 1 1.0 2.0 53 98
r 0.27768 3 4 ack 40 ------- 2 3.0 0.0 16 99
+ 0.27768 4 0 ack 40 ------- 2 3.0 0.0 16 99
- 0.27768 4 0 ack 40 ------- 2 3.0 0.0 16 99
r 0.27836 4 2 cbr 210 ------- 1 1.0 2.0 51 93
r 0.27968 4 0 ack 40 ------- 2 3.0 0.0 15 94
+ 0.27968 0 4 tcp 1040 ------- 2 0.0 3.0 31 105
+ 0.27968 0 4 tcp 1040 ------- 2 0.0 3.0 32 106
+ 0.28 1 4 cbr 210 ------- 1 1.0 2.0 56 107
- 0.28 1 4 cbr 210 ------- 1 1.0 2.0 56 107
- 0.28064 0 4 tcp 1040 ------- 2 0.0 3.0 22 83
r 0.28168 1 4 cbr 210 ------- 1 1.0 2.0 54 100
+ 0.28168 4 2 cbr 210 ------- 1 1.0 2.0 54 100
- 0.28168 4 2 cbr 210 ------- 1 1.0 2.0 54 100
r 0.28232 0 4 tcp 1040 ------- 2 0.0 3.0 20 78
+ 0.28232 4 3 tcp 1040 ------- 2 0.0 3.0 20 78
- 0.28232 4 3 tcp 1040 ------- 2 0.0 3.0 20 78
r 0.28336 4 2 cbr 210 ------- 1 1.0 2.0 52 95
r 0.284 4 3 tcp 1040 ------- 2 0.0 3.0 18 74
+ 0.284 3 4 ack 40 ------- 2 3.0 0.0 18 108
- 0.284 3 4 ack 40 ------- 2 3.0 0.0 18 108
+ 0.285 1 4 cbr 210 ------- 1 1.0 2.0 57 109
- 0.285 1 4 cbr 210 ------- 1 1.0 2.0 57 109
r 0.286 3 4 ack 40 ------- 2 3.0 0.0 17 104
+ 0.286 4 0 ack 40 ------- 2 3.0 0.0 17 104
- 0.286 4 0 ack 40 ------- 2 3.0 0.0 17 104
r 0.28668 1 4 cbr 210 ------- 1 1.0 2.0 55 103
+ 0.28668 4 2 cbr 210 ------- 1 1.0 2.0 55 103
- 0.28668 4 2 cbr 210 ------- 1 1.0 2.0 55 103
r 0.288 4 0 ack 40 ------- 2 3.0 0.0 16 99
+ 0.288 0 4 tcp 1040 ------- 2 0.0 3.0 33 110
+ 0.288 0 4 tcp 1040 ------- 2 0.0 3.0 34 111
r 0.28836 4 2 cbr 210 ------- 1 1.0 2.0 53 98
- 0.28896 0 4 tcp 1040 ------- 2 0.0 3.0 23 87
+ 0.29 1 4 cbr 210 ------- 1 1.0 2.0 58 112
- 0.29 1 4 cbr 210 ------- 1 1.0 2.0 58 112
r 0.29064 0 4 tcp 1040 ------- 2 0.0 3.0 21 82
+ 0.29064 4 3 tcp 1040 ------- 2 0.0 3.0 21 82
- 0.29064 4 3 tcp 1040 ------- 2 0.0 3.0 21 82
r 0.29168 1 4 cbr 210 ------- 1 1.0 2.0 56 107
+ 0.29168 4 2 cbr 210 ------- 1 1.0 2.0 56 107
- 0.29168 4 2 cbr 210 ------- 1 1.0 2.0 56 107
r 0.29232 4 3 tcp 1040 ------- 2 0.0 3.0 19 77
+ 0.29232 3 4 ack 40 ------- 2 3.0 0.0 19 113
- 0.29232 3 4 ack 40 ------- 2 3.0 0.0 19 113
r 0.29336 4 2 cbr 210 ------- 1 1.0 2.0 54 100
r 0.29432 3 4 ack 40 ------- 2 3.0 0.0 18 108
+ 0.29432 4 0 ack 40 ------- 2 3.0 0.0 18 108
- 0.29432 4 0 ack 40 ------- 2 3.0 0.0 18 108
+ 0.295 1 4 cbr 210 ------- 1 1.0 2.0 59 114
- 0.295 1 4 cbr 210 ------- 1 1.0 2.0 59 114
r 0.29632 4 0 ack 40 ------- 2 3.0 0.0 17 104
+ 0.29632 0 4 tcp 1040 ------- 2 0.0 3.0 35 115
+ 0.29632 0 4 tcp 1040 ------- 2 0.0 3.0 36 116
r 0.29668 1 4 cbr 210 ------- 1 1.0 2.0 57 109
+ 0.29668 4 2 cbr 210 ------- 1 1.0 2.0 57 109
- 0.29668 4 2 cbr 210 ------- 1 1.0 2.0 57 109
- 0.29728 0 4 tcp 1040 ------- 2 0.0 3.0 24 88
r 0.29836 4 2 cbr 210 ------- 1 1.0 2.0 55 103
r 0.29896 0 4 tcp 1040 ------- 2 0.0 3.0 22 83
+ 0.29896 4 3 tcp 1040 ------- 2 0.0 3.0 22 83
- 0.29896 4 3 tcp 1040 ------- 2 0.0 3.0 22 83
+ 0.3 1 4 cbr 210 ------- 1 1.0 2.0 60 117
- 0.3 1 4 cbr 210 ------- 1 1.0 2.0 60 117
r 0.30064 4 3 tcp 1040 ------- 2 0.0 3.0 20 78
+ 0.30064 3 4 ack 40 ------- 2 3.0 0.0 20 118
- 0.30064 3 4 ack 40 ------- 2 3.0 0.0 20 118
r 0.30168 1 4 cbr 210 ------- 1 1.0 2.0 58 112
+ 0.30168 4 2 cbr 210 ------- 1 1.0 2.0 58 112
- 0.30168 4 2 cbr 210 ------- 1 1.0 2.0 58 112
r 0.30264 3 4 ack 40 ------- 2 3.0 0.0 19 113
+ 0.30264 4 0 ack 40 ------- 2 3.0 0.0 19 113
- 0.30264 4 0 ack 40 ------- 2 3.0 0.0 19 113
r 0.30336 4 2 cbr 210 ------- 1 1.0 2.0 56 107
r 0.30464 4 0 ack 40 ------- 2 3.0 0.0 18 108
+ 0.30464 0 4 tcp 1040 ------- 2 0.0 3.0 37 119
+ 0.30464 0 4 tcp 1040 ------- 2 0.0 3.0 38 120
+ 0.305 1 4 cbr 210 ------- 1 1.0 2.0 61 121
- 0.305 1 4 cbr 210 ------- 1 1.0 2.0 61 121
- 0.3056 0 4 tcp 1040 ------- 2 0.0 3.0 25 91
r 0.30668 1 4 cbr 210 ------- 1 1.0 2.0 59 114
+ 0.30668 4 2 cbr 210 ------- 1 1.0 2.0 59 114
- 0.30668 4 2 cbr 210 ------- 1 1.0 2.0 59 114
r 0.30728 0 4 tcp 1040 ------- 2 0.0 3.0 23 87
+ 0.30728 4 3 tcp 1040 ------- 2 0.0 3.0 23 87
- 0.30728 4 3 tcp 1040 ------- 2 0.0 3.0 23 87
r 0.30836 4 2 cbr 210 ------- 1 1.0 2.0 57 109
r 0.30896 4 3 tcp 1040 ------- 2 0.0 3.0 21 82
+ 0.30896 3 4 ack 40 ------- 2 3.0 0.0 21 122
- 0.30896 3 4 ack 40 ------- 2 3.0 0.0 21 122
+ 0.31 1 4 cbr 210 ------- 1 1.0 2.0 62 123
- 0.31 1 4 cbr 210 ------- 1 1.0 2.0 62 123
r 0.31096 3 4 ack 40 ------- 2 3.0 0.0 20 118
+ 0.31096 4 0 ack 40 ------- 2 3.0 0.0 20 118
- 0.31096 4 0 ack 40 ------- 2 3.0 0.0 20 118
r 0.31168 1 4 cbr 210 ------- 1 1.0 2.0 60 117
+ 0.31168 4 2 cbr 210 ------- 1 1.0 2.0 60 117
- 0.31168 4 2 cbr 210 ------- 1 1.0 2.0 60 117
r 0.31296 4 0 ack 40 ------- 2 3.0 0.0 19 113
+ 0.31296 0 4 tcp 1040 ------- 2 0.0 3.0 39 124
r 0.31336 4 2 cbr 210 ------- 1 1.0 2.0 58 112
- 0.31392 0 4 tcp 1040 ------- 2 0.0 3.0 26 92
+ 0.315 1 4 cbr 210 ------- 1 1.0 2.0 63 125
- 0.315 1 4 cbr 210 ------- 1 1.0 2.0 63 125
r 0.3156 0 4 tcp 1040 ------- 2 0.0 3.0 24 88
+ 0.3156 4 3 tcp 1040 ------- 2 0.0 3.0 24 88
- 0.3156 4 3 tcp 1040 ------- 2 0.0 3.0 24 88
r 0.31668 1 4 cbr 210 ------- 1 1.0 2.0 61 121
+ 0.31668 4 2 cbr 210 ------- 1 1.0 2.0 61 121