V -t * -v 1.0a5 -a 0
A -t * -n 1 -p 0 -o 0x7fffffff -c 30 -a 1
A -t * -h 1 -m 1073741823 -s 0
c -t * -i 1 -n Blue
c -t * -i 2 -n Red
n -t * -a 4 -s 4 -S UP -v circle -c black -i black
n -t * -a 0 -s 0 -S UP -v circle -c black -i black
n -t * -a 1 -s 1 -S UP -v circle -c black -i black
n -t * -a 2 -s 2 -S UP -v circle -c black -i black
n -t * -a 3 -s 3 -S UP -v circle -c black -i black
l -t * -s 0 -d 4 -S UP -r 1000000 -D 0.01 -c black
l -t * -s 1 -d 4 -S UP -r 1000000 -D 0.01 -c black
l -t * -s 4 -d 3 -S UP -r 1000000 -D 0.01 -c black
l -t * -s 4 -d 2 -S UP -r 1000000 -D 0.01 -c black
+ -t 0 -s 1 -d 4 -p cbr -e 210 -c 1 -i 0 -a 1 -x {1.0 2.0 0 ------- null}
- -t 0 -s 1 -d 4 -p cbr -e 210 -c 1 -i 0 -a 1 -x {1.0 2.0 0 ------- null}
h -t 0 -s 1 -d 4 -p cbr -e 210 -c 1 -i 0 -a 1 -x {1.0 2.0 -1 ------- null}
+ -t 0 -s 0 -d 4 -p tcp -e 40 -c 2 -i 1 -a 2 -x {0.0 3.0 0 ------- null}
- -t 0 -s 0 -d 4 -p tcp -e 40 -c 2 -i 1 -a 2 -x {0.0 3.0 0 ------- null}
h -t 0 -s 0 -d 4 -p tcp -e 40 -c 2 -i 1 -a 2 -x {0.0 3.0 -1 ------- null}
+ -t 0.005 -s 1 -d 4 -p cbr -e 210 -c 1 -i 2 -a 1 -x {1.0 2.0 1 ------- null}
- -t 0.005 -s 1 -d 4 -p cbr -e 210 -c 1 -i 2 -a 1 -x {1.0 2.0 1 ------- null}
h -t 0.005 -s 1 -d 4 -p cbr -e 210 -c 1 -i 2 -a 1 -x {1.0 2.0 -1 ------- null}
+ -t 0.01 -s 1 -d 4 -p cbr -e 210 -c 1 -i 3 -a 1 -x {1.0 2.0 2 ------- null}
- -t 0.01 -s 1 -d 4 -p cbr -e 210 -c 1 -i 3 -a 1 -x {1.0 2.0 2 ------- null}
h -t 0.01 -s 1 -d 4 -p cbr -e 210 -c 1 -i 3 -a 1 -x {1.0 2.0 -1 ------- null}
r -t 0.01032 -s 0 -d 4 -p tcp -e 40 -c 2 -i 1 -a 2 -x {0.0 3.0 0 ------- null}
+ -t 0.01032 -s 4 -d 3 -p tcp -e 40 -c 2 -i 1 -a 2 -x {0.0 3.0 0 ------- null}
- -t 0.01032 -s 4 -d 3 -p tcp -e 40 -c 2 -i 1 -a 2 -x {0.0 3.0 0 ------- null}
h -t 0.01032 -s 4 -d 3 -p tcp -e 40 -c 2 -i 1 -a 2 -x {0.0 3.0 -1 ------- null}
r -t 0.01168 -s 1 -d 4 -p cbr -e 210 -c 1 -i 0 -a 1 -x {1.0 2.0 0 ------- null}
+ -t 0.01168 -s 4 -d 2 -p cbr -e 210 -c 1 -i 0 -a 1 -x {1.0 2.0 0 ------- null}
- -t 0.01168 -s 4 -d 2 -p cbr -e 210 -c 1 -i 0 -a 1 -x {1.0 2.0 0 ------- null}
h -t 0.01168 -s 4 -d 2 -p cbr -e 210 -c 1 -i 0 -a 1 -x {1.0 2.0 -1 ------- null}
+ -t 0.015 -s 1 -d 4 -p cbr -e 210 -c 1 -i 4 -a 1 -x {1.0 2.0 3 ------- null}
- -t 0.015 -s 1 -d 4 -p cbr -e 210 -c 1 -i 4 -a 1 -x {1.0 2.0 3 ------- null}
h -t 0.015 -s 1 -d 4 -p cbr -e 210 -c 1 -i 4 -a 1 -x {1.0 2.0 -1 ------- null}
r -t 0.01668 -s 1 -d 4 -p cbr -e 210 -c 1 -i 2 -a 1 -x {1.0 2.0 1 ------- null}
+ -t 0.01668 -s 4 -d 2 -p cbr -e 210 -c 1 -i 2 -a 1 -x {1.0 2.0 1 ------- null}
- -t 0.01668 -s 4 -d 2 -p cbr -e 210 -c 1 -i 2 -a 1 -x {1.0 2.0 1 ------- null}
h -t 0.01668 -s 4 -d 2 -p cbr -e 210 -c 1 -i 2 -a 1 -x {1.0 2.0 -1 ------- null}
+ -t 0.02 -s 1 -d 4 -p cbr -e 210 -c 1 -i 5 -a 1 -x {1.0 2.0 4 ------- null}
- -t 0.02 -s 1 -d 4 -p cbr -e 210 -c 1 -i 5 -a 1 -x {1.0 2.0 4 ------- null}
h -t 0.02 -s 1 -d 4 -p cbr -e 210 -c 1 -i 5 -a 1 -x {1.0 2.0 -1 ------- null}
r -t 0.02064 -s 4 -d 3 -p tcp -e 40 -c 2 -i 1 -a 2 -x {0.0 3.0 0 ------- null}
+ -t 0.02064 -s 3 -d 4 -p ack -e 40 -c 2 -i 6 -a 2 -x {3.0 0.0 0 ------- null}
- -t 0.02064 -s 3 -d 4 -p ack -e 40 -c 2 -i 6 -a 2 -x {3.0 0.0 0 ------- null}
h -t 0.02064 -s 3 -d 4 -p ack -e 40 -c 2 -i 6 -a 2 -x {3.0 0.0 -1 ------- null}
r -t 0.02168 -s 1 -d 4 -p cbr -e 210 -c 1 -i 3 -a 1 -x {1.0 2.0 2 ------- null}
+ -t 0.02168 -s 4 -d 2 -p cbr -e 210 -c 1 -i 3 -a 1 -x {1.0 2.0 2 ------- null}
- -t 0.02168 -s 4 -d 2 -p cbr -e 210 -c 1 -i 3 -a 1 -x {1.0 2.0 2 ------- null}
h -t 0.02168 -s 4 -d 2 -p cbr -e 210 -c 1 -i 3 -a 1 -x {1.0 2.0 -1 ------- null}
r -t 0.02336 -s 4 -d 2 -p cbr -e 210 -c 1 -i 0 -a 1 -x {1.0 2.0 0 ------- null}
+ -t 0.025 -s 1 -d 4 -p cbr -e 210 -c 1 -i 7 -a 1 -x {1.0 2.0 5 ------- null}
- -t 0.025 -s 1 -d 4 -p cbr -e 210 -c 1 -i 7 -a 1 -x {1.0 2.0 5 ------- null}
h -t 0.025 -s 1 -d 4 -p cbr -e 210 -c 1 -i 7 -a 1 -x {1.0 2.0 -1 ------- null}
r -t 0.02668 -s 1 -d 4 -p cbr -e 210 -c 1 -i 4 -a 1 -x {1.0 2.0 3 ------- null}
+ -t 0.02668 -s 4 -d 2 -p cbr -e 210 -c 1 -i 4 -a 1 -x {1.0 2.0 3 ------- null}
- -t 0.02668 -s 4 -d 2 -p cbr -e 210 -c 1 -i 4 -a 1 -x {1.0 2.0 3 ------- null}
h -t 0.02668 -s 4 -d 2 -p cbr -e 210 -c 1 -i 4 -a 1 -x {1.0 2.0 -1 ------- null}
r -t 0.02836 -s 4 -d 2 -p cbr -e 210 -c 1 -i 2 -a 1 -x {1.0 2.0 1 ------- null}
+ -t 0.03 -s 1 -d 4 -p cbr -e 210 -c 1 -i 8 -a 1 -x {1.0 2.0 6 ------- null}
- -t 0.03 -s 1 -d 4 -p cbr -e 210 -c 1 -i 8 -a 1 -x {1.0 2.0 6 ------- null}
h -t 0.03 -s 1 -d 4 -p cbr -e 210 -c 1 -i 8 -a 1 -x {1.0 2.0 -1 ------- null}
r -t 0.03096 -s 3 -d 4 -p ack -e 40 -c 2 -i 6 -a 2 -x {3.0 0.0 0 ------- null}
+ -t 0.03096 -s 4 -d 0 -p ack -e 40 -c 2 -i 6 -a 2 -x {3.0 0.0 0 ------- null}
- -t 0.03096 -s 4 -d 0 -p ack -e 40 -c 2 -i 6 -a 2 -x {3.0 0.0 0 ------- null}
h -t 0.03096 -s 4 -d 0 -p ack -e 40 -c 2 -i 6 -a 2 -x {3.0 0.0 -1 ------- null}
r -t 0.03168 -s 1 -d 4 -p cbr -e 210 -c 1 -i 5 -a 1 -x {1.0 2.0 4 ------- null}
+ -t 0.03168 -s 4 -d 2 -p cbr -e 210 -c 1 -i 5 -a 1 -x {1.0 2.0 4 ------- null}
- -t 0.03168 -s 4 -d 2 -p cbr -e 210 -c 1 -i 5 -a 1 -x {1.0 2.0 4 ------- null}
h -t 0.03168 -s 4 -d 2 -p cbr -e 210 -c 1 -i 5 -a 1 -x {1.0 2.0 -1 ------- null}
r -t 0.03336 -s 4 -d 2 -p cbr -e 210 -c 1 -i 3 -a 1 -x {1.0 2.0 2 ------- null}
+ -t 0.035 -s 1 -d 4 -p cbr -e 210 -c 1 -i 9 -a 1 -x {1.0 2.0 7 ------- null}
- -t 0.035 -s 1 -d 4 -p cbr -e 210 -c 1 -i 9 -a 1 -x {1.0 2.0 7 ------- null}
h -t 0.035 -s 1 -d 4 -p cbr -e 210 -c 1 -i 9 -a 1 -x {1.0 2.0 -1 ------- null}
r -t 0.03668 -s 1 -d 4 -p cbr -e 210 -c 1 -i 7 -a 1 -x {1.0 2.0 5 ------- null}
+ -t 0.03668 -s 4 -d 2 -p cbr -e 210 -c 1 -i 7 -a 1 -x {1.0 2.0 5 ------- null}
- -t 0.03668 -s 4 -d 2 -p cbr -e 210 -c 1 -i 7 -a 1 -x {1.0 2.0 5 ------- null}
h -t 0.03668 -s 4 -d 2 -p cbr -e 210 -c 1 -i 7 -a 1 -x {1.0 2.0 -1 ------- null}
r -t 0.03836 -s 4 -d 2 -p cbr -e 210 -c 1 -i 4 -a 1 -x {1.0 2.0 3 ------- null}
+ -t 0.04 -s 1 -d 4 -p cbr -e 210 -c 1 -i 10 -a 1 -x {1.0 2.0 8 ------- null}
- -t 0.04 -s 1 -d 4 -p cbr -e 210 -c 1 -i 10 -a 1 -x {1.0 2.0 8 ------- null}
h -t 0.04 -s 1 -d 4 -p cbr -e 210 -c 1 -i 10 -a 1 -x {1.0 2.0 -1 ------- null}
r -t 0.04128 -s 4 -d 0 -p ack -e 40 -c 2 -i 6 -a 2 -x {3.0 0.0 0 ------- null}
+ -t 0.04128 -s 0 -d 4 -p tcp -e 1040 -c 2 -i 11 -a 2 -x {0.0 3.0 1 ------- null}
- -t 0.04128 -s 0 -d 4 -p tcp -e 1040 -c 2 -i 11 -a 2 -x {0.0 3.0 1 ------- null}
h -t 0.04128 -s 0 -d 4 -p tcp -e 1040 -c 2 -i 11 -a 2 -x {0.0 3.0 -1 ------- null}
+ -t 0.04128 -s 0 -d 4 -p tcp -e 1040 -c 2 -i 12 -a 2 -x {0.0 3.0 2 ------- null}
r -t 0.04168 -s 1 -d 4 -p cbr -e 210 -c 1 -i 8 -a 1 -x {1.0 2.0 6 ------- null}
+ -t 0.04168 -s 4 -d 2 -p cbr -e 210 -c 1 -i 8 -a 1 -x {1.0 2.0 6 ------- null}
- -t 0.04168 -s 4 -d 2 -p cbr -e 210 -c 1 -i 8 -a 1 -x {1.0 2.0 6 ------- null}
h -t 0.04168 -s 4 -d 2 -p cbr -e 210 -c 1 -i 8 -a 1 -x {1.0 2.0 -1 ------- null}
r -t 0.04336 -s 4 -d 2 -p cbr -e 210 -c 1 -i 5 -a 1 -x {1.0 2.0 4 ------- null}
+ -t 0.045 -s 1 -d 4 -p cbr -e 210 -c 1 -i 13 -a 1 -x {1.0 2.0 9 ------- null}
- -t 0.045 -s 1 -d 4 -p cbr -e 210 -c 1 -i 13 -a 1 -x {1.0 2.0 9 ------- null}
h -t 0.045 -s 1 -d 4 -p cbr -e 210 -c 1 -i 13 -a 1 -x {1.0 2.0 -1 ------- null}
r -t 0.04668 -s 1 -d 4 -p cbr -e 210 -c 1 -i 9 -a 1 -x {1.0 2.0 7 ------- null}
+ -t 0.04668 -s 4 -d 2 -p cbr -e 210 -c 1 -i 9 -a 1 -x {1.0 2.0 7 ------- null}
- -t 0.04668 -s 4 -d 2 -p cbr -e 210 -c 1 -i 9 -a 1 -x {1.0 2.0 7 ------- null}
h -t 0.04668 -s 4 -d 2 -p cbr -e 210 -c 1 -i 9 -a 1 -x {1.0 2.0 -1 ------- null}
r -t 0.04836 -s 4 -d 2 -p cbr -e 210 -c 1 -i 7 -a 1 -x {1.0 2.0 5 ------- null}
- -t 0.0496 -s 0 -d 4 -p tcp -e 1040 -c 2 -i 12 -a 2 -x {0.0 3.0 2 ------- null}
h -t 0.0496 -s 0 -d 4 -p tcp -e 1040 -c 2 -i 12 -a 2 -x {0.0 3.0 -1 ------- null}
+ -t 0.05 -s 1 -d 4 -p cbr -e 210 -c 1 -i 14 -a 1 -x {1.0 2.0 10 ------- null}
- -t 0.05 -s 1 -d 4 -p cbr -e 210 -c 1 -i 14 -a 1 -x {1.0 2.0 10 ------- null}
h -t 0.05 -s 1 -d 4 -p cbr -e 210 -c 1 -i 14 -a 1 -x {1.0 2.0 -1 ------- null}
r -t 0.05168 -s 1 -d 4 -p cbr -e 210 -c 1 -i 10 -a 1 -x {1.0 2.0 8 ------- null}
+ -t 0.05168 -s 4 -d 2 -p cbr -e 210 -c 1 -i 10 -a 1 -x {1.0 2.0 8 ------- null}
- -t 0.05168 -s 4 -d 2 -p cbr -e 210 -c 1 -i 10 -a 1 -x {1.0 2.0 8 ------- null}
h -t 0.05168 -s 4 -d 2 -p cbr -e 210 -c 1 -i 10 -a 1 -x {1.0 2.0 -1 ------- null}
r -t 0.05336 -s 4 -d 2 -p cbr -e 210 -c 1 -i 8 -a 1 -x {1.0 2.0 6 ------- null}
+ -t 0.055 -s 1 -d 4 -p cbr -e 210 -c 1 -i 15 -a 1 -x {1.0 2.0 11 ------- null}
- -t 0.055 -s 1 -d 4 -p cbr -e 210 -c 1 -i 15 -a 1 -x {1.0 2.0 11 ------- null}
h -t 0.055 -s 1 -d 4 -p cbr -e 210 -c 1 -i 15 -a 1 -x {1.0 2.0 -1 ------- null}
r -t 0.05668 -s 1 -d 4 -p cbr -e 210 -c 1 -i 13 -a 1 -x {1.0 2.0 9 ------- null}
+ -t 0.05668 -s 4 -d 2 -p cbr -e 210 -c 1 -i 13 -a 1 -x {1.0 2.0 9 ------- null}
- -t 0.05668 -s 4 -d 2 -p cbr -e 210 -c 1 -i 13 -a 1 -x {1.0 2.0 9 ------- null}
h -t 0.05668 -s 4 -d 2 -p cbr -e 210 -c 1 -i 13 -a 1 -x {1.0 2.0 -1 ------- null}
r -t 0.05836 -s 4 -d 2 -p cbr -e 210 -c 1 -i 9 -a 1 -x {1.0 2.0 7 ------- null}
r -t 0.0596 -s 0 -d 4 -p tcp -e 1040 -c 2 -i 11 -a 2 -x {0.0 3.0 1 ------- null}
+ -t 0.0596 -s 4 -d 3 -p tcp -e 1040 -c 2 -i 11 -a 2 -x {0.0 3.0 1 ------- null}
- -t 0.0596 -s 4 -d 3 -p tcp -e 1040 -c 2 -i 11 -a 2 -x {0.0 3.0 1 ------- null}
h -t 0.0596 -s 4 -d 3 -p tcp -e 1040 -c 2 -i 11 -a 2 -x {0.0 3.0 -1 ------- null}
+ -t 0.06 -s 1 -d 4 -p cbr -e 210 -c 1 -i 16 -a 1 -x {1.0 2.0 12 ------- null}
- -t 0.06 -s 1 -d 4 -p cbr -e 210 -c 1 -i 16 -a 1 -x {1.0 2.0 12 ------- null}
h -t 0.06 -s 1 -d 4 -p cbr -e 210 -c 1 -i 16 -a 1 -x {1.0 2.0 -1 ------- null}
r -t 0.06168 -s 1 -d 4 -p cbr -e 210 -c 1 -i 14 -a 1 -x {1.0 2.0 10 ------- null}
+ -t 0.06168 -s 4 -d 2 -p cbr -e 210 -c 1 -i 14 -a 1 -x {1.0 2.0 10 ------- null}
- -t 0.06168 -s 4 -d 2 -p cbr -e 210 -c 1 -i 14 -a 1 -x {1.0 2.0 10 ------- null}
h -t 0.06168 -s 4 -d 2 -p cbr -e 210 -c 1 -i 14 -a 1 -x {1.0 2.0 -1 ------- null}
r -t 0.06336 -s 4 -d 2 -p cbr -e 210 -c 1 -i 10 -a 1 -x {1.0 2.0 8 ------- null}
+ -t 0.065 -s 1 -d 4 -p cbr -e 210 -c 1 -i 17 -a 1 -x {1.0 2.0 13 ------- null}
- -t 0.065 -s 1 -d 4 -p cbr -e 210 -c 1 -i 17 -a 1 -x {1.0 2.0 13 ------- null}
h -t 0.065 -s 1 -d 4 -p cbr -e 210 -c 1 -i 17 -a 1 -x {1.0 2.0 -1 ------- null}
r -t 0.06668 -s 1 -d 4 -p cbr -e 210 -c 1 -i 15 -a 1 -x {1.0 2.0 11 ------- null}
+ -t 0.06668 -s 4 -d 2 -p cbr -e 210 -c 1 -i 15 -a 1 -x {1.0 2.0 11 ------- null}
- -t 0.06668 -s 4 -d 2 -p cbr -e 210 -c 1 -i 15 -a 1 -x {1.0 2.0 11 ------- null}
h -t 0.06668 -s 4 -d 2 -p cbr -e 210 -c 1 -i 15 -a 1 -x {1.0 2.0 -1 ------- null}
r -t 0.06792 -s 0 -d 4 -p tcp -e 1040 -c 2 -i 12 -a 2 -x {0.0 3.0 2 ------- null}
+ -t 0.06792 -s 4 -d 3 -p tcp -e 1040 -c 2 -i 12 -a 2 -x {0.0 3.0 2 ------- null}
- -t 0.06792 -s 4 -d 3 -p tcp -e 1040 -c 2 -i 12 -a 2 -x {0.0 3.0 2 ------- null}
h -t 0.06792 -s 4 -d 3 -p tcp -e 1040 -c 2 -i 12 -a 2 -x {0.0 3.0 -1 ------- null}
r -t 0.06836 -s 4 -d 2 -p cbr -e 210 -c 1 -i 13 -a 1 -x {1.0 2.0 9 ------- null}
+ -t 0.07 -s 1 -d 4 -p cbr -e 210 -c 1 -i 18 -a 1 -x {1.0 2.0 14 ------- null}
- -t 0.07 -s 1 -d 4 -p cbr -e 210 -c 1 -i 18 -a 1 -x {1.0 2.0 14 ------- null}
h -t 0.07 -s 1 -d 4 -p cbr -e 210 -c 1 -i 18 -a 1 -x {1.0 2.0 -1 ------- null}
r -t 0.07168 -s 1 -d 4 -p cbr -e 210 -c 1 -i 16 -a 1 -x {1.0 2.0 12 ------- null}
+ -t 0.07168 -s 4 -d 2 -p cbr -e 210 -c 1 -i 16 -a 1 -x {1.0 2.0 12 ------- null}
- -t 0.07168 -s 4 -d 2 -p cbr -e 210 -c 1 -i 16 -a 1 -x {1.0 2.0 12 ------- null}
h -t 0.07168 -s 4 -d 2 -p cbr -e 210 -c 1 -i 16 -a 1 -x {1.0 2.0 -1 ------- null}
r -t 0.07336 -s 4 -d 2 -p cbr -e 210 -c 1 -i 14 -a 1 -x {1.0 2.0 10 ------- null}
+ -t 0.075 -s 1 -d 4 -p cbr -e 210 -c 1 -i 19 -a 1 -x {1.0 2.0 15 ------- null}
- -t 0.075 -s 1 -d 4 -p cbr -e 210 -c 1 -i 19 -a 1 -x {1.0 2.0 15 ------- null}
h -t 0.075 -s 1 -d 4 -p cbr -e 210 -c 1 -i 19 -a 1 -x {1.0 2.0 -1 ------- null}
r -t 0.07668 -s 1 -d 4 -p cbr -e 210 -c 1 -i 17 -a 1 -x {1.0 2.0 13 ------- null}
+ -t 0.07668 -s 4 -d 2 -p cbr -e 210 -c 1 -i 17 -a 1 -x {1.0 2.0 13 ------- null}
- -t 0.07668 -s 4 -d 2 -p cbr -e 210 -c 1 -i 17 -a 1 -x {1.0 2.0 13 ------- null}
h -t 0.07668 -s 4 -d 2 -p cbr -e 210 -c 1 -i 17 -a 1 -x {1.0 2.0 -1 ------- null}
r -t 0.07792 -s 4 -d 3 -p tcp -e 1040 -c 2 -i 11 -a 2 -x {0.0 3.0 1 ------- null}
+ -t 0.07792 -s 3 -d 4 -p ack -e 40 -c 2 -i 20 -a 2 -x {3.0 0.0 1 ------- null}
- -t 0.07792 -s 3 -d 4 -p ack -e 40 -c 2 -i 20 -a 2 -x {3.0 0.0 1 ------- null}
h -t 0.07792 -s 3 -d 4 -p ack -e 40 -c 2 -i 20 -a 2 -x {3.0 0.0 -1 ------- null}
r -t 0.07836 -s 4 -d 2 -p cbr -e 210 -c 1 -i 15 -a 1 -x {1.0 2.0 11 ------- null}
+ -t 0.08 -s 1 -d 4 -p cbr -e 210 -c 1 -i 21 -a 1 -x {1.0 2.0 16 ------- null}
- -t 0.08 -s 1 -d 4 -p cbr -e 210 -c 1 -i 21 -a 1 -x {1.0 2.0 16 ------- null}
h -t 0.08 -s 1 -d 4 -p cbr -e 210 -c 1 -i 21 -a 1 -x {1.0 2.0 -1 ------- null}
r -t 0.08168 -s 1 -d 4 -p cbr -e 210 -c 1 -i 18 -a 1 -x {1.0 2.0 14 ------- null}
+ -t 0.08168 -s 4 -d 2 -p cbr -e 210 -c 1 -i 18 -a 1 -x {1.0 2.0 14 ------- null}
- -t 0.08168 -s 4 -d 2 -p cbr -e 210 -c 1 -i 18 -a 1 -x {1.0 2.0 14 ------- null}
h -t 0.08168 -s 4 -d 2 -p cbr -e 210 -c 1 -i 18 -a 1 -x {1.0 2.0 -1 ------- null}
r -t 0.08336 -s 4 -d 2 -p cbr -e 210 -c 1 -i 16 -a 1 -x {1.0 2.0 12 ------- null}
+ -t 0.085 -s 1 -d 4 -p cbr -e 210 -c 1 -i 22 -a 1 -x {1.0 2.0 17 ------- null}
- -t 0.085 -s 1 -d 4 -p cbr -e 210 -c 1 -i 22 -a 1 -x {1.0 2.0 17 ------- null}
h -t 0.085 -s 1 -d 4 -p cbr -e 210 -c 1 -i 22 -a 1 -x {1.0 2.0 -1 ------- null}
r -t 0.08624 -s 4 -d 3 -p tcp -e 1040 -c 2 -i 12 -a 2 -x {0.0 3.0 2 ------- null}
+ -t 0.08624 -s 3 -d 4 -p ack -e 40 -c 2 -i 23 -a 2 -x {3.0 0.0 2 ------- null}
- -t 0.08624 -s 3 -d 4 -p ack -e 40 -c 2 -i 23 -a 2 -x {3.0 0.0 2 ------- null}
h -t 0.08624 -s 3 -d 4 -p ack -e 40 -c 2 -i 23 -a 2 -x {3.0 0.0 -1 ------- null}
r -t 0.08668 -s 1 -d 4 -p cbr -e 210 -c 1 -i 19 -a 1 -x {1.0 2.0 15 ------- null}
+ -t 0.08668 -s 4 -d 2 -p cbr -e 210 -c 1 -i 19 -a 1 -x {1.0 2.0 15 ------- null}
- -t 0.08668 -s 4 -d 2 -p cbr -e 210 -c 1 -i 19 -a 1 -x {1.0 2.0 15 ------- null}
h -t 0.08668 -s 4 -d 2 -p cbr -e 210 -c 1 -i 19 -a 1 -x {1.0 2.0 -1 ------- null}
r -t 0.08824 -s 3 -d 4 -p ack -e 40 -c 2 -i 20 -a 2 -x {3.0 0.0 1 ------- null}
+ -t 0.08824 -s 4 -d 0 -p ack -e 40 -c 2 -i 20 -a 2 -x {3.0 0.0 1 ------- null}
- -t 0.08824 -s 4 -d 0 -p ack -e 40 -c 2 -i 20 -a 2 -x {3.0 0.0 1 ------- null}
h -t 0.08824 -s 4 -d 0 -p ack -e 40 -c 2 -i 20 -a 2 -x {3.0 0.0 -1 ------- null}
r -t 0.08836 -s 4 -d 2 -p cbr -e 210 -c 1 -i 17 -a 1 -x {1.0 2.0 13 ------- null}
+ -t 0.09 -s 1 -d 4 -p cbr -e 210 -c 1 -i 24 -a 1 -x {1.0 2.0 18 ------- null}
- -t 0.09 -s 1 -d 4 -p cbr -e 210 -c 1 -i 24 -a 1 -x {1.0 2.0 18 ------- null}
h -t 0.09 -s 1 -d 4 -p cbr -e 210 -c 1 -i 24 -a 1 -x {1.0 2.0 -1 ------- null}
r -t 0.09168 -s 1 -d 4 -p cbr -e 210 -c 1 -i 21 -a 1 -x {1.0 2.0 16 ------- null}
+ -t 0.09168 -s 4 -d 2 -p cbr -e 210 -c 1 -i 21 -a 1 -x {1.0 2.0 16 ------- null}
- -t 0.09168 -s 4 -d 2 -p cbr -e 210 -c 1 -i 21 -a 1 -x {1.0 2.0 16 ------- null}
h -t 0.09168 -s 4 -d 2 -p cbr -e 210 -c 1 -i 21 -a 1 -x {1.0 2.0 -1 ------- null}
r -t 0.09336 -s 4 -d 2 -p cbr -e 210 -c 1 -i 18 -a 1 -x {1.0 2.0 14 ------- null}
+ -t 0.095 -s 1 -d 4 -p cbr -e 210 -c 1 -i 25 -a 1 -x {1.0 2.0 19 ------- null}
- -t 0.095 -s 1 -d 4 -p cbr -e 210 -c 1 -i 25 -a 1 -x {1.0 2.0 19 ------- null}
h -t 0.095 -s 1 -d 4 -p cbr -e 210 -c 1 -i 25 -a 1 -x {1.0 2.0 -1 ------- null}
r -t 0.09656 -s 3 -d 4 -p ack -e 40 -c 2 -i 23 -a 2 -x {3.0 0.0 2 ------- null}
+ -t 0.09656 -s 4 -d 0 -p ack -e 40 -c 2 -i 23 -a 2 -x {3.0 0.0 2 ------- null}
- -t 0.09656 -s 4 -d 0 -p ack -e 40 -c 2 -i 23 -a 2 -x {3.0 0.0 2 ------- null}
h -t 0.09656 -s 4 -d 0 -p ack -e 40 -c 2 -i 23 -a 2 -x {3.0 0.0 -1 ------- null}
r -t 0.09668 -s 1 -d 4 -p cbr -e 210 -c 1 -i 22 -a 1 -x {1.0 2.0 17 ------- null}
+ -t 0.09668 -s 4 -d 2 -p cbr -e 210 -c 1 -i 22 -a 1 -x {1.0 2.0 17 ------- null}
- -t 0.09668 -s 4 -d 2 -p cbr -e 210 -c 1 -i 22 -a 1 -x {1.0 2.0 17 ------- null}
h -t 0.09668 -s 4 -d 2 -p cbr -e 210 -c 1 -i 22 -a 1 -x {1.0 2.0 -1 ------- null}
r -t 0.09836 -s 4 -d 2 -p cbr -e 210 -c 1 -i 19 -a 1 -x {1.0 2.0 15 ------- null}
r -t 0.09856 -s 4 -d 0 -p ack -e 40 -c 2 -i 20 -a 2 -x {3.0 0.0 1 ------- null}
+ -t 0.09856 -s 0 -d 4 -p tcp -e 1040 -c 2 -i 26 -a 2 -x {0.0 3.0 3 ------- null}
- -t 0.09856 -s 0 -d 4 -p tcp -e 1040 -c 2 -i 26 -a 2 -x {0.0 3.0 3 ------- null}
h -t 0.09856 -s 0 -d 4 -p tcp -e 1040 -c 2 -i 26 -a 2 -x {0.0 3.0 -1 ------- null}
+ -t 0.09856 -s 0 -d 4 -p tcp -e 1040 -c 2 -i 27 -a 2 -x {0.0 3.0 4 ------- null}
+ -t 0.1 -s 1 -d 4 -p cbr -e 210 -c 1 -i 28 -a 1 -x {1.0 2.0 20 ------- null}
- -t 0.1 -s 1 -d 4 -p cbr -e 210 -c 1 -i 28 -a 1 -x {1.0 2.0 20 ------- null}
h -t 0.1 -s 1 -d 4 -p cbr -e 210 -c 1 -i 28 -a 1 -x {1.0 2.0 -1 ------- null}
r -t 0.10168 -s 1 -d 4 -p cbr -e 210 -c 1 -i 24 -a 1 -x {1.0 2.0 18 ------- null}
+ -t 0.10168 -s 4 -d 2 -p cbr -e 210 -c 1 -i 24 -a 1 -x {1.0 2.0 18 ------- null}
- -t 0.10168 -s 4 -d 2 -p cbr -e 210 -c 1 -i 24 -a 1 -x {1.0 2.0 18 ------- null}
h -t 0.10168 -s 4 -d 2 -p cbr -e 210 -c 1 -i 24 -a 1 -x {1.0 2.0 -1 ------- null}
r -t 0.10336 -s 4 -d 2 -p cbr -e 210 -c 1 -i 21 -a 1 -x {1.0 2.0 16 ------- null}
+ -t 0.105 -s 1 -d 4 -p cbr -e 210 -c 1 -i 29 -a 1 -x {1.0 2.0 21 ------- null}
- -t 0.105 -s 1 -d 4 -p cbr -e 210 -c 1 -i 29 -a 1 -x {1.0 2.0 21 ------- null}
h -t 0.105 -s 1 -d 4 -p cbr -e 210 -c 1 -i 29 -a 1 -x {1.0 2.0 -1 ------- null}
r -t 0.10668 -s 1 -d 4 -p cbr -e 210 -c 1 -i 25 -a 1 -x {1.0 2.0 19 ------- null}
+ -t 0.10668 -s 4 -d 2 -p cbr -e 210 -c 1 -i 25 -a 1 -x {1.0 2.0 19 ------- null}
- -t 0.10668 -s 4 -d 2 -p cbr -e 210 -c 1 -i 25 -a 1 -x {1.0 2.0 19 ------- null}
h -t 0.10668 -s 4 -d 2 -p cbr -e 210 -c 1 -i 25 -a 1 -x {1.0 2.0 -1 ------- null}
- -t 0.10688 -s 0 -d 4 -p tcp -e 1040 -c 2 -i 27 -a 2 -x {0.0 3.0 4 ------- null}
h -t 0.10688 -s 0 -d 4 -p tcp -e 1040 -c 2 -i 27 -a 2 -x {0.0 3.0 -1 ------- null}
r -t 0.10688 -s 4 -d 0 -p ack -e 40 -c 2 -i 23 -a 2 -x {3.0 0.0 2 ------- null}
+ -t 0.10688 -s 0 -d 4 -p tcp -e 1040 -c 2 -i 30 -a 2 -x {0.0 3.0 5 ------- null}
+ -t 0.10688 -s 0 -d 4 -p tcp -e 1040 -c 2 -i 31 -a 2 -x {0.0 3.0 6 ------- null}
r -t 0.10836 -s 4 -d 2 -p cbr -e 210 -c 1 -i 22 -a 1 -x {1.0 2.0 17 ------- null}
+ -t 0.11 -s 1 -d 4 -p cbr -e 210 -c 1 -i 32 -a 1 -x {1.0 2.0 22 ------- null}
- -t 0.11 -s 1 -d 4 -p cbr -e 210 -c 1 -i 32 -a 1 -x {1.0 2.0 22 ------- null}
h -t 0.11 -s 1 -d 4 -p cbr -e 210 -c 1 -i 32 -a 1 -x {1.0 2.0 -1 ------- null}
r -t 0.11168 -s 1 -d 4 -p cbr -e 210 -c 1 -i 28 -a 1 -x {1.0 2.0 20 ------- null}
+ -t 0.11168 -s 4 -d 2 -p cbr -e 210 -c 1 -i 28 -a 1 -x {1.0 2.0 20 ------- null}
- -t 0.11168 -s 4 -d 2 -p cbr -e 210 -c 1 -i 28 -a 1 -x {1.0 2.0 20 ------- null}
h -t 0.11168 -s 4 -d 2 -p cbr -e 210 -c 1 -i 28 -a 1 -x {1.0 2.0 -1 ------- null}
r -t 0.11336 -s 4 -d 2 -p cbr -e 210 -c 1 -i 24 -a 1 -x {1.0 2.0 18 ------- null}
+ -t 0.115 -s 1 -d 4 -p cbr -e 210 -c 1 -i 33 -a 1 -x {1.0 2.0 23 ------- null}
- -t 0.115 -s 1 -d 4 -p cbr -e 210 -c 1 -i 33 -a 1 -x {1.0 2.0 23 ------- null}
h -t 0.115 -s 1 -d 4 -p cbr -e 210 -c 1 -i 33 -a 1 -x {1.0 2.0 -1 ------- null}
- -t 0.1152 -s 0 -d 4 -p tcp -e 1040 -c 2 -i 30 -a 2 -x {0.0 3.0 5 ------- null}
h -t 0.1152 -s 0 -d 4 -p tcp -e 1040 -c 2 -i 30 -a 2 -x {0.0 3.0 -1 ------- null}
r -t 0.11668 -s 1 -d 4 -p cbr -e 210 -c 1 -i 29 -a 1 -x {1.0 2.0 21 ------- null}
+ -t 0.11668 -s 4 -d 2 -p cbr -e 210 -c 1 -i 29 -a 1 -x {1.0 2.0 21 ------- null}
- -t 0.11668 -s 4 -d 2 -p cbr -e 210 -c 1 -i 29 -a 1 -x {1.0 2.0 21 ------- null}
h -t 0.11668 -s 4 -d 2 -p cbr -e 210 -c 1 -i 29 -a 1 -x {1.0 2.0 -1 ------- null}
r -t 0.11688 -s 0 -d 4 -p tcp -e 1040 -c 2 -i 26 -a 2 -x {0.0 3.0 3 ------- null}
+ -t 0.11688 -s 4 -d 3 -p tcp -e 1040 -c 2 -i 26 -a 2 -x {0.0 3.0 3 ------- null}
- -t 0.11688 -s 4 -d 3 -p tcp -e 1040 -c 2 -i 26 -a 2 -x {0.0 3.0 3 ------- null}
h -t 0.11688 -s 4 -d 3 -p tcp -e 1040 -c 2 -i 26 -a 2 -x {0.0 3.0 -1 ------- null}
r -t 0.11836 -s 4 -d 2 -p cbr -e 210 -c 1 -i 25 -a 1 -x {1.0 2.0 19 ------- null}
+ -t 0.12 -s 1 -d 4 -p cbr -e 210 -c 1 -i 34 -a 1 -x {1.0 2.0 24 ------- null}
- -t 0.12 -s 1 -d 4 -p cbr -e 210 -c 1 -i 34 -a 1 -x {1.0 2.0 24 ------- null}
h -t 0.12 -s 1 -d 4 -p cbr -e 210 -c 1 -i 34 -a 1 -x {1.0 2.0 -1 ------- null}
r -t 0.12168 -s 1 -d 4 -p cbr -e 210 -c 1 -i 32 -a 1 -x {1.0 2.0 22 ------- null}
+ -t 0.12168 -s 4 -d 2 -p cbr -e 210 -c 1 -i 32 -a 1 -x {1.0 2.0 22 ------- null}
- -t 0.12168 -s 4 -d 2 -p cbr -e 210 -c 1 -i 32 -a 1 -x {1.0 2.0 22 ------- null}
h -t 0.12168 -s 4 -d 2 -p cbr -e 210 -c 1 -i 32 -a 1 -x {1.0 2.0 -1 ------- null}
r -t 0.12336 -s 4 -d 2 -p cbr -e 210 -c 1 -i 28 -a 1 -x {1.0 2.0 20 ------- null}
- -t 0.12352 -s 0 -d 4 -p tcp -e 1040 -c 2 -i 31 -a 2 -x {0.0 3.0 6 ------- null}
h -t 0.12352 -s 0 -d 4 -p tcp -e 1040 -c 2 -i 31 -a 2 -x {0.0 3.0 -1 ------- null}
+ -t 0.125 -s 1 -d 4 -p cbr -e 210 -c 1 -i 35 -a 1 -x {1.0 2.0 25 ------- null}
- -t 0.125 -s 1 -d 4 -p cbr -e 210 -c 1 -i 35 -a 1 -x {1.0 2.0 25 ------- null}
h -t 0.125 -s 1 -d 4 -p cbr -e 210 -c 1 -i 35 -a 1 -x {1.0 2.0 -1 ------- null}
r -t 0.1252 -s 0 -d 4 -p tcp -e 1040 -c 2 -i 27 -a 2 -x {0.0 3.0 4 ------- null}
+ -t 0.1252 -s 4 -d 3 -p tcp -e 1040 -c 2 -i 27 -a 2 -x {0.0 3.0 4 ------- null}
- -t 0.1252 -s 4 -d 3 -p tcp -e 1040 -c 2 -i 27 -a 2 -x {0.0 3.0 4 ------- null}
h -t 0.1252 -s 4 -d 3 -p tcp -e 1040 -c 2 -i 27 -a 2 -x {0.0 3.0 -1 ------- null}
r -t 0.12668 -s 1 -d 4 -p cbr -e 210 -c 1 -i 33 -a 1 -x {1.0 2.0 23 ------- null}
+ -t 0.12668 -s 4 -d 2 -p cbr -e 210 -c 1 -i 33 -a 1 -x {1.0 2.0 23 ------- null}
- -t 0.12668 -s 4 -d 2 -p cbr -e 210 -c 1 -i 33 -a 1 -x {1.0 2.0 23 ------- null}
h -t 0.12668 -s 4 -d 2 -p cbr -e 210 -c 1 -i 33 -a 1 -x {1.0 2.0 -1 ------- null}
r -t 0.12836 -s 4 -d 2 -p cbr -e 210 -c 1 -i 29 -a 1 -x {1.0 2.0 21 ------- null}
+ -t 0.13 -s 1 -d 4 -p cbr -e 210 -c 1 -i 36 -a 1 -x {1.0 2.0 26 ------- null}
- -t 0.13 -s 1 -d 4 -p cbr -e 210 -c 1 -i 36 -a 1 -x {1.0 2.0 26 ------- null}
h -t 0.13 -s 1 -d 4 -p cbr -e 210 -c 1 -i 36 -a 1 -x {1.0 2.0 -1 ------- null}
r -t 0.13168 -s 1 -d 4 -p cbr -e 210 -c 1 -i 34 -a 1 -x {1.0 2.0 24 ------- null}
+ -t 0.13168 -s 4 -d 2 -p cbr -e 210 -c 1 -i 34 -a 1 -x {1.0 2.0 24 ------- null}
- -t 0.13168 -s 4 -d 2 -p cbr -e 210 -c 1 -i 34 -a 1 -x {1.0 2.0 24 ------- null}
h -t 0.13168 -s 4 -d 2 -p cbr -e 210 -c 1 -i 34 -a 1 -x {1.0 2.0 -1 ------- null}
r -t 0.13336 -s 4 -d 2 -p cbr -e 210 -c 1 -i 32 -a 1 -x {1.0 2.0 22 ------- null}
r -t 0.13352 -s 0 -d 4 -p tcp -e 1040 -c 2 -i 30 -a 2 -x {0.0 3.0 5 ------- null}
+ -t 0.13352 -s 4 -d 3 -p tcp -e 1040 -c 2 -i 30 -a 2 -x {0.0 3.0 5 ------- null}
- -t 0.13352 -s 4 -d 3 -p tcp -e 1040 -c 2 -i 30 -a 2 -x {0.0 3.0 5 ------- null}
h -t 0.13352 -s 4 -d 3 -p tcp -e 1040 -c 2 -i 30 -a 2 -x {0.0 3.0 -1 ------- null}
+ -t 0.135 -s 1 -d 4 -p cbr -e 210 -c 1 -i 37 -a 1 -x {1.0 2.0 27 ------- null}
- -t 0.135 -s 1 -d 4 -p cbr -e 210 -c 1 -i 37 -a 1 -x {1.0 2.0 27 ------- null}
h -t 0.135 -s 1 -d 4 -p cbr -e 210 -c 1 -i 37 -a 1 -x {1.0 2.0 -1 ------- null}
r -t 0.1352 -s 4 -d 3 -p tcp -e 1040 -c 2 -i 26 -a 2 -x {0.0 3.0 3 ------- null}
+ -t 0.1352 -s 3 -d 4 -p ack -e 40 -c 2 -i 38 -a 2 -x {3.0 0.0 3 ------- null}
- -t 0.1352 -s 3 -d 4 -p ack -e 40 -c 2 -i 38 -a 2 -x {3.0 0.0 3 ------- null}
h -t 0.1352 -s 3 -d 4 -p ack -e 40 -c 2 -i 38 -a 2 -x {3.0 0.0 -1 ------- null}
r -t 0.13668 -s 1 -d 4 -p cbr -e 210 -c 1 -i 35 -a 1 -x {1.0 2.0 25 ------- null}
+ -t 0.13668 -s 4 -d 2 -p cbr -e 210 -c 1 -i 35 -a 1 -x {1.0 2.0 25 ------- null}
- -t 0.13668 -s 4 -d 2 -p cbr -e 210 -c 1 -i 35 -a 1 -x {1.0 2.0 25 ------- null}
h -t 0.13668 -s 4 -d 2 -p cbr -e 210 -c 1 -i 35 -a 1 -x {1.0 2.0 -1 ------- null}
r -t 0.13836 -s 4 -d 2 -p cbr -e 210 -c 1 -i 33 -a 1 -x {1.0 2.0 23 ------- null}
+ -t 0.14 -s 1 -d 4 -p cbr -e 210 -c 1 -i 39 -a 1 -x {1.0 2.0 28 ------- null}
- -t 0.14 -s 1 -d 4 -p cbr -e 210 -c 1 -i 39 -a 1 -x {1.0 2.0 28 ------- null}
h -t 0.14 -s 1 -d 4 -p cbr -e 210 -c 1 -i 39 -a 1 -x {1.0 2.0 -1 ------- null}
r -t 0.14168 -s 1 -d 4 -p cbr -e 210 -c 1 -i 36 -a 1 -x {1.0 2.0 26 ------- null}
+ -t 0.14168 -s 4 -d 2 -p cbr -e 210 -c 1 -i 36 -a 1 -x {1.0 2.0 26 ------- null}
- -t 0.14168 -s 4 -d 2 -p cbr -e 210 -c 1 -i 36 -a 1 -x {1.0 2.0 26 ------- null}
h -t 0.14168 -s 4 -d 2 -p cbr -e 210 -c 1 -i 36 -a 1 -x {1.0 2.0 -1 ------- null}
r -t 0.14184 -s 0 -d 4 -p tcp -e 1040 -c 2 -i 31 -a 2 -x {0.0 3.0 6 ------- null}
+ -t 0.14184 -s 4 -d 3 -p tcp -e 1040 -c 2 -i 31 -a 2 -x {0.0 3.0 6 ------- null}
- -t 0.14184 -s 4 -d 3 -p tcp -e 1040 -c 2 -i 31 -a 2 -x {0.0 3.0 6 ------- null}
h -t 0.14184 -s 4 -d 3 -p tcp -e 1040 -c 2 -i 31 -a 2 -x {0.0 3.0 -1 ------- null}
r -t 0.14336 -s 4 -d 2 -p cbr -e 210 -c 1 -i 34 -a 1 -x {1.0 2.0 24 ------- null}
r -t 0.14352 -s 4 -d 3 -p tcp -e 1040 -c 2 -i 27 -a 2 -x {0.0 3.0 4 ------- null}
+ -t 0.14352 -s 3 -d 4 -p ack -e 40 -c 2 -i 40 -a 2 -x {3.0 0.0 4 ------- null}
- -t 0.14352 -s 3 -d 4 -p ack -e 40 -c 2 -i 40 -a 2 -x {3.0 0.0 4 ------- null}
h -t 0.14352 -s 3 -d 4 -p ack -e 40 -c 2 -i 40 -a 2 -x {3.0 0.0 -1 ------- null}
+ -t 0.145 -s 1 -d 4 -p cbr -e 210 -c 1 -i 41 -a 1 -x {1.0 2.0 29 ------- null}
- -t 0.145 -s 1 -d 4 -p cbr -e 210 -c 1 -i 41 -a 1 -x {1.0 2.0 29 ------- null}
h -t 0.145 -s 1 -d 4 -p cbr -e 210 -c 1 -i 41 -a 1 -x {1.0 2.0 -1 ------- null}
r -t 0.14552 -s 3 -d 4 -p ack -e 40 -c 2 -i 38 -a 2 -x {3.0 0.0 3 ------- null}
+ -t 0.14552 -s 4 -d 0 -p ack -e 40 -c 2 -i 38 -a 2 -x {3.0 0.0 3 ------- null}
- -t 0.14552 -s 4 -d 0 -p ack -e 40 -c 2 -i 38 -a 2 -x {3.0 0.0 3 ------- null}
h -t 0.14552 -s 4 -d 0 -p ack -e 40 -c 2 -i 38 -a 2 -x {3.0 0.0 -1 ------- null}
r -t 0.14668 -s 1 -d 4 -p cbr -e 210 -c 1 -i 37 -a 1 -x {1.0 2.0 27 ------- null}
+ -t 0.14668 -s 4 -d 2 -p cbr -e 210 -c 1 -i 37 -a 1 -x {1.0 2.0 27 ------- null}
- -t 0.14668 -s 4 -d 2 -p cbr -e 210 -c 1 -i 37 -a 1 -x {1.0 2.0 27 ------- null}
h -t 0.14668 -s 4 -d 2 -p cbr -e 210 -c 1 -i 37 -a 1 -x {1.0 2.0 -1 ------- null}
r -t 0.14836 -s 4 -d 2 -p cbr -e 210 -c 1 -i 35 -a 1 -x {1.0 2.0 25 ------- null}
+ -t 0.15 -s 1 -d 4 -p cbr -e 210 -c 1 -i 42 -a 1 -x {1.0 2.0 30 ------- null}
- -t 0.15 -s 1 -d 4 -p cbr -e 210 -c 1 -i 42 -a 1 -x {1.0 2.0 30 ------- null}
h -t 0.15 -s 1 -d 4 -p cbr -e 210 -c 1 -i 42 -a 1 -x {1.0 2.0 -1 ------- null}
r -t 0.15168 -s 1 -d 4 -p cbr -e 210 -c 1 -i 39 -a 1 -x {1.0 2.0 28 ------- null}
+ -t 0.15168 -s 4 -d 2 -p cbr -e 210 -c 1 -i 39 -a 1 -x {1.0 2.0 28 ------- null}
- -t 0.15168 -s 4 -d 2 -p cbr -e 210 -c 1 -i 39 -a 1 -x {1.0 2.0 28 ------- null}
h -t 0.15168 -s 4 -d 2 -p cbr -e 210 -c 1 -i 39 -a 1 -x {1.0 2.0 -1 ------- null}
r -t 0.15184 -s 4 -d 3 -p tcp -e 1040 -c 2 -i 30 -a 2 -x {0.0 3.0 5 ------- null}
+ -t 0.15184 -s 3 -d 4 -p ack -e 40 -c 2 -i 43 -a 2 -x {3.0 0.0 5 ------- null}
- -t 0.15184 -s 3 -d 4 -p ack -e 40 -c 2 -i 43 -a 2 -x {3.0 0.0 5 ------- null}
h -t 0.15184 -s 3 -d 4 -p ack -e 40 -c 2 -i 43 -a 2 -x {3.0 0.0 -1 ------- null}
r -t 0.15336 -s 4 -d 2 -p cbr -e 210 -c 1 -i 36 -a 1 -x {1.0 2.0 26 ------- null}
r -t 0.15384 -s 3 -d 4 -p ack -e 40 -c 2 -i 40 -a 2 -x {3.0 0.0 4 ------- null}
+ -t 0.15384 -s 4 -d 0 -p ack -e 40 -c 2 -i 40 -a 2 -x {3.0 0.0 4 ------- null}
- -t 0.15384 -s 4 -d 0 -p ack -e 40 -c 2 -i 40 -a 2 -x {3.0 0.0 4 ------- null}
h -t 0.15384 -s 4 -d 0 -p ack -e 40 -c 2 -i 40 -a 2 -x {3.0 0.0 -1 ------- null}
+ -t 0.155 -s 1 -d 4 -p cbr -e 210 -c 1 -i 44 -a 1 -x {1.0 2.0 31 ------- null}
- -t 0.155 -s 1 -d 4 -p cbr -e 210 -c 1 -i 44 -a 1 -x {1.0 2.0 31 ------- null}
h -t 0.155 -s 1 -d 4 -p cbr -e 210 -c 1 -i 44 -a 1 -x {1.0 2.0 -1 ------- null}
r -t 0.15584 -s 4 -d 0 -p ack -e 40 -c 2 -i 38 -a 2 -x {3.0 0.0 3 ------- null}
+ -t 0.15584 -s 0 -d 4 -p tcp -e 1040 -c 2 -i 45 -a 2 -x {0.0 3.0 7 ------- null}
- -t 0.15584 -s 0 -d 4 -p tcp -e 1040 -c 2 -i 45 -a 2 -x {0.0 3.0 7 ------- null}
h -t 0.15584 -s 0 -d 4 -p tcp -e 1040 -c 2 -i 45 -a 2 -x {0.0 3.0 -1 ------- null}
+ -t 0.15584 -s 0 -d 4 -p tcp -e 1040 -c 2 -i 46 -a 2 -x {0.0 3.0 8 ------- null}
r -t 0.15668 -s 1 -d 4 -p cbr -e 210 -c 1 -i 41 -a 1 -x {1.0 2.0 29 ------- null}
+ -t 0.15668 -s 4 -d 2 -p cbr -e 210 -c 1 -i 41 -a 1 -x {1.0 2.0 29 ------- null}
- -t 0.15668 -s 4 -d 2 -p cbr -e 210 -c 1 -i 41 -a 1 -x {1.0 2.0 29 ------- null}
h -t 0.15668 -s 4 -d 2 -p cbr -e 210 -c 1 -i 41 -a 1 -x {1.0 2.0 -1 ------- null}
r -t 0.15836 -s 4 -d 2 -p cbr -e 210 -c 1 -i 37 -a 1 -x {1.0 2.0 27 ------- null}
+ -t 0.16 -s 1 -d 4 -p cbr -e 210 -c 1 -i 47 -a 1 -x {1.0 2.0 32 ------- null}
- -t 0.16 -s 1 -d 4 -p cbr -e 210 -c 1 -i 47 -a 1 -x {1.0 2.0 32 ------- null}
h -t 0.16 -s 1 -d 4 -p cbr -e 210 -c 1 -i 47 -a 1 -x {1.0 2.0 -1 ------- null}
r -t 0.16016 -s 4 -d 3 -p tcp -e 1040 -c 2 -i 31 -a 2 -x {0.0 3.0 6 ------- null}
+ -t 0.16016 -s 3 -d 4 -p ack -e 40 -c 2 -i 48 -a 2 -x {3.0 0.0 6 ------- null}
- -t 0.16016 -s 3 -d 4 -p ack -e 40 -c 2 -i 48 -a 2 -x {3.0 0.0 6 ------- null}
h -t 0.16016 -s 3 -d 4 -p ack -e 40 -c 2 -i 48 -a 2 -x {3.0 0.0 -1 ------- null}
r -t 0.16168 -s 1 -d 4 -p cbr -e 210 -c 1 -i 42 -a 1 -x {1.0 2.0 30 ------- null}
+ -t 0.16168 -s 4 -d 2 -p cbr -e 210 -c 1 -i 42 -a 1 -x {1.0 2.0 30 ------- null}
- -t 0.16168 -s 4 -d 2 -p cbr -e 210 -c 1 -i 42 -a 1 -x {1.0 2.0 30 ------- null}
h -t 0.16168 -s 4 -d 2 -p cbr -e 210 -c 1 -i 42 -a 1 -x {1.0 2.0 -1 ------- null}
r -t 0.16216 -s 3 -d 4 -p ack -e 40 -c 2 -i 43 -a 2 -x {3.0 0.0 5 ------- null}
+ -t 0.16216 -s 4 -d 0 -p ack -e 40 -c 2 -i 43 -a 2 -x {3.0 0.0 5 ------- null}
- -t 0.16216 -s 4 -d 0 -p ack -e 40 -c 2 -i 43 -a 2 -x {3.0 0.0 5 ------- null}
h -t 0.16216 -s 4 -d 0 -p ack -e 40 -c 2 -i 43 -a 2 -x {3.0 0.0 -1 ------- null}
r -t 0.16336 -s 4 -d 2 -p cbr -e 210 -c 1 -i 39 -a 1 -x {1.0 2.0 28 ------- null}
- -t 0.16416 -s 0 -d 4 -p tcp -e 1040 -c 2 -i 46 -a 2 -x {0.0 3.0 8 ------- null}
h -t 0.16416 -s 0 -d 4 -p tcp -e 1040 -c 2 -i 46 -a 2 -x {0.0 3.0 -1 ------- null}
r -t 0.16416 -s 4 -d 0 -p ack -e 40 -c 2 -i 40 -a 2 -x {3.0 0.0 4 ------- null}
+ -t 0.16416 -s 0 -d 4 -p tcp -e 1040 -c 2 -i 49 -a 2 -x {0.0 3.0 9 ------- null}