+ 0 0 1 tcp 40 ------- 0 0.0 1.0 0 0
- 0 0 1 tcp 40 ------- 0 0.0 1.0 0 0
r 0.01032 0 1 tcp 40 ------- 0 0.0 1.0 0 0
+ 0.01032 1 0 ack 40 ------- 0 1.0 0.0 0 1
- 0.01032 1 0 ack 40 ------- 0 1.0 0.0 0 1
r 0.02064 1 0 ack 40 ------- 0 1.0 0.0 0 1
+ 0.02064 0 1 tcp 1540 ------- 0 0.0 1.0 1 2
- 0.02064 0 1 tcp 1540 ------- 0 0.0 1.0 1 2
+ 0.02064 0 1 tcp 1540 ------- 0 0.0 1.0 2 3
- 0.03296 0 1 tcp 1540 ------- 0 0.0 1.0 2 3
r 0.04296 0 1 tcp 1540 ------- 0 0.0 1.0 1 2
+ 0.04296 1 0 ack 40 ------- 0 1.0 0.0 1 4
- 0.04296 1 0 ack 40 ------- 0 1.0 0.0 1 4
r 0.05328 1 0 ack 40 ------- 0 1.0 0.0 1 4
+ 0.05328 0 1 tcp 1540 ------- 0 0.0 1.0 3 5
- 0.05328 0 1 tcp 1540 ------- 0 0.0 1.0 3 5
+ 0.05328 0 1 tcp 1540 ------- 0 0.0 1.0 4 6
r 0.05528 0 1 tcp 1540 ------- 0 0.0 1.0 2 3
+ 0.05528 1 0 ack 40 ------- 0 1.0 0.0 2 7
- 0.05528 1 0 ack 40 ------- 0 1.0 0.0 2 7
- 0.0656 0 1 tcp 1540 ------- 0 0.0 1.0 4 6
r 0.0656 1 0 ack 40 ------- 0 1.0 0.0 2 7
+ 0.0656 0 1 tcp 1540 ------- 0 0.0 1.0 5 8
+ 0.0656 0 1 tcp 1540 ------- 0 0.0 1.0 6 9
r 0.0756 0 1 tcp 1540 ------- 0 0.0 1.0 3 5
+ 0.0756 1 0 ack 40 ------- 0 1.0 0.0 3 10
- 0.0756 1 0 ack 40 ------- 0 1.0 0.0 3 10
- 0.07792 0 1 tcp 1540 ------- 0 0.0 1.0 5 8
r 0.08592 1 0 ack 40 ------- 0 1.0 0.0 3 10
+ 0.08592 0 1 tcp 1540 ------- 0 0.0 1.0 7 11
+ 0.08592 0 1 tcp 1540 ------- 0 0.0 1.0 8 12
r 0.08792 0 1 tcp 1540 ------- 0 0.0 1.0 4 6
+ 0.08792 1 0 ack 40 ------- 0 1.0 0.0 4 13
- 0.08792 1 0 ack 40 ------- 0 1.0 0.0 4 13
- 0.09024 0 1 tcp 1540 ------- 0 0.0 1.0 6 9
r 0.09824 1 0 ack 40 ------- 0 1.0 0.0 4 13
+ 0.09824 0 1 tcp 1540 ------- 0 0.0 1.0 9 14
+ 0.09824 0 1 tcp 1540 ------- 0 0.0 1.0 10 15
r 0.10024 0 1 tcp 1540 ------- 0 0.0 1.0 5 8
+ 0.10024 1 0 ack 40 ------- 0 1.0 0.0 5 16
- 0.10024 1 0 ack 40 ------- 0 1.0 0.0 5 16
- 0.10256 0 1 tcp 1540 ------- 0 0.0 1.0 7 11
r 0.11056 1 0 ack 40 ------- 0 1.0 0.0 5 16
+ 0.11056 0 1 tcp 1540 ------- 0 0.0 1.0 11 17
+ 0.11056 0 1 tcp 1540 ------- 0 0.0 1.0 12 18
r 0.11256 0 1 tcp 1540 ------- 0 0.0 1.0 6 9
+ 0.11256 1 0 ack 40 ------- 0 1.0 0.0 6 19
- 0.11256 1 0 ack 40 ------- 0 1.0 0.0 6 19
- 0.11488 0 1 tcp 1540 ------- 0 0.0 1.0 8 12
r 0.12288 1 0 ack 40 ------- 0 1.0 0.0 6 19
+ 0.12288 0 1 tcp 1540 ------- 0 0.0 1.0 13 20
+ 0.12288 0 1 tcp 1540 ------- 0 0.0 1.0 14 21
r 0.12488 0 1 tcp 1540 ------- 0 0.0 1.0 7 11
+ 0.12488 1 0 ack 40 ------- 0 1.0 0.0 7 22
- 0.12488 1 0 ack 40 ------- 0 1.0 0.0 7 22
- 0.1272 0 1 tcp 1540 ------- 0 0.0 1.0 9 14
r 0.1352 1 0 ack 40 ------- 0 1.0 0.0 7 22
+ 0.1352 0 1 tcp 1540 ------- 0 0.0 1.0 15 23
+ 0.1352 0 1 tcp 1540 ------- 0 0.0 1.0 16 24
r 0.1372 0 1 tcp 1540 ------- 0 0.0 1.0 8 12
+ 0.1372 1 0 ack 40 ------- 0 1.0 0.0 8 25
- 0.1372 1 0 ack 40 ------- 0 1.0 0.0 8 25
- 0.13952 0 1 tcp 1540 ------- 0 0.0 1.0 10 15
r 0.14752 1 0 ack 40 ------- 0 1.0 0.0 8 25
+ 0.14752 0 1 tcp 1540 ------- 0 0.0 1.0 17 26
+ 0.14752 0 1 tcp 1540 ------- 0 0.0 1.0 18 27
r 0.14952 0 1 tcp 1540 ------- 0 0.0 1.0 9 14
+ 0.14952 1 0 ack 40 ------- 0 1.0 0.0 9 28
- 0.14952 1 0 ack 40 ------- 0 1.0 0.0 9 28
- 0.15184 0 1 tcp 1540 ------- 0 0.0 1.0 11 17
r 0.15984 1 0 ack 40 ------- 0 1.0 0.0 9 28
+ 0.15984 0 1 tcp 1540 ------- 0 0.0 1.0 19 29
+ 0.15984 0 1 tcp 1540 ------- 0 0.0 1.0 20 30
r 0.16184 0 1 tcp 1540 ------- 0 0.0 1.0 10 15
+ 0.16184 1 0 ack 40 ------- 0 1.0 0.0 10 31
- 0.16184 1 0 ack 40 ------- 0 1.0 0.0 10 31
- 0.16416 0 1 tcp 1540 ------- 0 0.0 1.0 12 18
r 0.17216 1 0 ack 40 ------- 0 1.0 0.0 10 31
+ 0.17216 0 1 tcp 1540 ------- 0 0.0 1.0 21 32
+ 0.17216 0 1 tcp 1540 ------- 0 0.0 1.0 22 33
r 0.17416 0 1 tcp 1540 ------- 0 0.0 1.0 11 17
+ 0.17416 1 0 ack 40 ------- 0 1.0 0.0 11 34
- 0.17416 1 0 ack 40 ------- 0 1.0 0.0 11 34
- 0.17648 0 1 tcp 1540 ------- 0 0.0 1.0 13 20
r 0.18448 1 0 ack 40 ------- 0 1.0 0.0 11 34
+ 0.18448 0 1 tcp 1540 ------- 0 0.0 1.0 23 35
+ 0.18448 0 1 tcp 1540 ------- 0 0.0 1.0 24 36
r 0.18648 0 1 tcp 1540 ------- 0 0.0 1.0 12 18
+ 0.18648 1 0 ack 40 ------- 0 1.0 0.0 12 37
- 0.18648 1 0 ack 40 ------- 0 1.0 0.0 12 37
- 0.1888 0 1 tcp 1540 ------- 0 0.0 1.0 14 21
r 0.1968 1 0 ack 40 ------- 0 1.0 0.0 12 37
+ 0.1968 0 1 tcp 1540 ------- 0 0.0 1.0 25 38
+ 0.1968 0 1 tcp 1540 ------- 0 0.0 1.0 26 39
r 0.1988 0 1 tcp 1540 ------- 0 0.0 1.0 13 20
+ 0.1988 1 0 ack 40 ------- 0 1.0 0.0 13 40
- 0.1988 1 0 ack 40 ------- 0 1.0 0.0 13 40
- 0.20112 0 1 tcp 1540 ------- 0 0.0 1.0 15 23
r 0.20912 1 0 ack 40 ------- 0 1.0 0.0 13 40
+ 0.20912 0 1 tcp 1540 ------- 0 0.0 1.0 27 41
+ 0.20912 0 1 tcp 1540 ------- 0 0.0 1.0 28 42
r 0.21112 0 1 tcp 1540 ------- 0 0.0 1.0 14 21
+ 0.21112 1 0 ack 40 ------- 0 1.0 0.0 14 43
- 0.21112 1 0 ack 40 ------- 0 1.0 0.0 14 43
- 0.21344 0 1 tcp 1540 ------- 0 0.0 1.0 16 24
r 0.22144 1 0 ack 40 ------- 0 1.0 0.0 14 43
+ 0.22144 0 1 tcp 1540 ------- 0 0.0 1.0 29 44
+ 0.22144 0 1 tcp 1540 ------- 0 0.0 1.0 30 45
r 0.22344 0 1 tcp 1540 ------- 0 0.0 1.0 15 23
+ 0.22344 1 0 ack 40 ------- 0 1.0 0.0 15 46
- 0.22344 1 0 ack 40 ------- 0 1.0 0.0 15 46
- 0.22576 0 1 tcp 1540 ------- 0 0.0 1.0 17 26
r 0.23376 1 0 ack 40 ------- 0 1.0 0.0 15 46
+ 0.23376 0 1 tcp 1540 ------- 0 0.0 1.0 31 47
+ 0.23376 0 1 tcp 1540 ------- 0 0.0 1.0 32 48
r 0.23576 0 1 tcp 1540 ------- 0 0.0 1.0 16 24
+ 0.23576 1 0 ack 40 ------- 0 1.0 0.0 16 49
- 0.23576 1 0 ack 40 ------- 0 1.0 0.0 16 49
- 0.23808 0 1 tcp 1540 ------- 0 0.0 1.0 18 27
r 0.24608 1 0 ack 40 ------- 0 1.0 0.0 16 49
+ 0.24608 0 1 tcp 1540 ------- 0 0.0 1.0 33 50
+ 0.24608 0 1 tcp 1540 ------- 0 0.0 1.0 34 51
r 0.24808 0 1 tcp 1540 ------- 0 0.0 1.0 17 26
+ 0.24808 1 0 ack 40 ------- 0 1.0 0.0 17 52
- 0.24808 1 0 ack 40 ------- 0 1.0 0.0 17 52
- 0.2504 0 1 tcp 1540 ------- 0 0.0 1.0 19 29
r 0.2584 1 0 ack 40 ------- 0 1.0 0.0 17 52
+ 0.2584 0 1 tcp 1540 ------- 0 0.0 1.0 35 53
+ 0.2584 0 1 tcp 1540 ------- 0 0.0 1.0 36 54
r 0.2604 0 1 tcp 1540 ------- 0 0.0 1.0 18 27
+ 0.2604 1 0 ack 40 ------- 0 1.0 0.0 18 55
- 0.2604 1 0 ack 40 ------- 0 1.0 0.0 18 55
- 0.26272 0 1 tcp 1540 ------- 0 0.0 1.0 20 30
r 0.27072 1 0 ack 40 ------- 0 1.0 0.0 18 55
+ 0.27072 0 1 tcp 1540 ------- 0 0.0 1.0 37 56
+ 0.27072 0 1 tcp 1540 ------- 0 0.0 1.0 38 57
r 0.27272 0 1 tcp 1540 ------- 0 0.0 1.0 19 29
+ 0.27272 1 0 ack 40 ------- 0 1.0 0.0 19 58
- 0.27272 1 0 ack 40 ------- 0 1.0 0.0 19 58
- 0.27504 0 1 tcp 1540 ------- 0 0.0 1.0 21 32
r 0.28304 1 0 ack 40 ------- 0 1.0 0.0 19 58
+ 0.28304 0 1 tcp 1540 ------- 0 0.0 1.0 39 59
r 0.28504 0 1 tcp 1540 ------- 0 0.0 1.0 20 30
+ 0.28504 1 0 ack 40 ------- 0 1.0 0.0 20 60
- 0.28504 1 0 ack 40 ------- 0 1.0 0.0 20 60
- 0.28736 0 1 tcp 1540 ------- 0 0.0 1.0 22 33
r 0.29536 1 0 ack 40 ------- 0 1.0 0.0 20 60
+ 0.29536 0 1 tcp 1540 ------- 0 0.0 1.0 40 61
r 0.29736 0 1 tcp 1540 ------- 0 0.0 1.0 21 32
+ 0.29736 1 0 ack 40 ------- 0 1.0 0.0 21 62
- 0.29736 1 0 ack 40 ------- 0 1.0 0.0 21 62
- 0.29968 0 1 tcp 1540 ------- 0 0.0 1.0 23 35
r 0.30768 1 0 ack 40 ------- 0 1.0 0.0 21 62
+ 0.30768 0 1 tcp 1540 ------- 0 0.0 1.0 41 63
r 0.30968 0 1 tcp 1540 ------- 0 0.0 1.0 22 33
+ 0.30968 1 0 ack 40 ------- 0 1.0 0.0 22 64
- 0.30968 1 0 ack 40 ------- 0 1.0 0.0 22 64
- 0.312 0 1 tcp 1540 ------- 0 0.0 1.0 24 36
r 0.32 1 0 ack 40 ------- 0 1.0 0.0 22 64
+ 0.32 0 1 tcp 1540 ------- 0 0.0 1.0 42 65
r 0.322 0 1 tcp 1540 ------- 0 0.0 1.0 23 35
+ 0.322 1 0 ack 40 ------- 0 1.0 0.0 23 66
- 0.322 1 0 ack 40 ------- 0 1.0 0.0 23 66
- 0.32432 0 1 tcp 1540 ------- 0 0.0 1.0 25 38
r 0.33232 1 0 ack 40 ------- 0 1.0 0.0 23 66
+ 0.33232 0 1 tcp 1540 ------- 0 0.0 1.0 43 67
r 0.33432 0 1 tcp 1540 ------- 0 0.0 1.0 24 36
+ 0.33432 1 0 ack 40 ------- 0 1.0 0.0 24 68
- 0.33432 1 0 ack 40 ------- 0 1.0 0.0 24 68
- 0.33664 0 1 tcp 1540 ------- 0 0.0 1.0 26 39
r 0.34464 1 0 ack 40 ------- 0 1.0 0.0 24 68
+ 0.34464 0 1 tcp 1540 ------- 0 0.0 1.0 44 69
r 0.34664 0 1 tcp 1540 ------- 0 0.0 1.0 25 38
+ 0.34664 1 0 ack 40 ------- 0 1.0 0.0 25 70
- 0.34664 1 0 ack 40 ------- 0 1.0 0.0 25 70
- 0.34896 0 1 tcp 1540 ------- 0 0.0 1.0 27 41
r 0.35696 1 0 ack 40 ------- 0 1.0 0.0 25 70
+ 0.35696 0 1 tcp 1540 ------- 0 0.0 1.0 45 71
r 0.35896 0 1 tcp 1540 ------- 0 0.0 1.0 26 39
+ 0.35896 1 0 ack 40 ------- 0 1.0 0.0 26 72
- 0.35896 1 0 ack 40 ------- 0 1.0 0.0 26 72
- 0.36128 0 1 tcp 1540 ------- 0 0.0 1.0 28 42
r 0.36928 1 0 ack 40 ------- 0 1.0 0.0 26 72
+ 0.36928 0 1 tcp 1540 ------- 0 0.0 1.0 46 73
r 0.37128 0 1 tcp 1540 ------- 0 0.0 1.0 27 41
+ 0.37128 1 0 ack 40 ------- 0 1.0 0.0 27 74
- 0.37128 1 0 ack 40 ------- 0 1.0 0.0 27 74
- 0.3736 0 1 tcp 1540 ------- 0 0.0 1.0 29 44
r 0.3816 1 0 ack 40 ------- 0 1.0 0.0 27 74
+ 0.3816 0 1 tcp 1540 ------- 0 0.0 1.0 47 75
r 0.3836 0 1 tcp 1540 ------- 0 0.0 1.0 28 42
+ 0.3836 1 0 ack 40 ------- 0 1.0 0.0 28 76
- 0.3836 1 0 ack 40 ------- 0 1.0 0.0 28 76
- 0.38592 0 1 tcp 1540 ------- 0 0.0 1.0 30 45
r 0.39392 1 0 ack 40 ------- 0 1.0 0.0 28 76
+ 0.39392 0 1 tcp 1540 ------- 0 0.0 1.0 48 77
r 0.39592 0 1 tcp 1540 ------- 0 0.0 1.0 29 44
+ 0.39592 1 0 ack 40 ------- 0 1.0 0.0 29 78
- 0.39592 1 0 ack 40 ------- 0 1.0 0.0 29 78
- 0.39824 0 1 tcp 1540 ------- 0 0.0 1.0 31 47
r 0.40624 1 0 ack 40 ------- 0 1.0 0.0 29 78
+ 0.40624 0 1 tcp 1540 ------- 0 0.0 1.0 49 79
r 0.40824 0 1 tcp 1540 ------- 0 0.0 1.0 30 45
+ 0.40824 1 0 ack 40 ------- 0 1.0 0.0 30 80
- 0.40824 1 0 ack 40 ------- 0 1.0 0.0 30 80
- 0.41056 0 1 tcp 1540 ------- 0 0.0 1.0 32 48
r 0.41856 1 0 ack 40 ------- 0 1.0 0.0 30 80
+ 0.41856 0 1 tcp 1540 ------- 0 0.0 1.0 50 81
r 0.42056 0 1 tcp 1540 ------- 0 0.0 1.0 31 47
+ 0.42056 1 0 ack 40 ------- 0 1.0 0.0 31 82
- 0.42056 1 0 ack 40 ------- 0 1.0 0.0 31 82
- 0.42288 0 1 tcp 1540 ------- 0 0.0 1.0 33 50
r 0.43088 1 0 ack 40 ------- 0 1.0 0.0 31 82
+ 0.43088 0 1 tcp 1540 ------- 0 0.0 1.0 51 83
r 0.43288 0 1 tcp 1540 ------- 0 0.0 1.0 32 48
+ 0.43288 1 0 ack 40 ------- 0 1.0 0.0 32 84
- 0.43288 1 0 ack 40 ------- 0 1.0 0.0 32 84
- 0.4352 0 1 tcp 1540 ------- 0 0.0 1.0 34 51
r 0.4432 1 0 ack 40 ------- 0 1.0 0.0 32 84
+ 0.4432 0 1 tcp 1540 ------- 0 0.0 1.0 52 85
r 0.4452 0 1 tcp 1540 ------- 0 0.0 1.0 33 50
+ 0.4452 1 0 ack 40 ------- 0 1.0 0.0 33 86
- 0.4452 1 0 ack 40 ------- 0 1.0 0.0 33 86
- 0.44752 0 1 tcp 1540 ------- 0 0.0 1.0 35 53
r 0.45552 1 0 ack 40 ------- 0 1.0 0.0 33 86
+ 0.45552 0 1 tcp 1540 ------- 0 0.0 1.0 53 87
r 0.45752 0 1 tcp 1540 ------- 0 0.0 1.0 34 51
+ 0.45752 1 0 ack 40 ------- 0 1.0 0.0 34 88
- 0.45752 1 0 ack 40 ------- 0 1.0 0.0 34 88
- 0.45984 0 1 tcp 1540 ------- 0 0.0 1.0 36 54
r 0.46784 1 0 ack 40 ------- 0 1.0 0.0 34 88
+ 0.46784 0 1 tcp 1540 ------- 0 0.0 1.0 54 89
r 0.46984 0 1 tcp 1540 ------- 0 0.0 1.0 35 53
+ 0.46984 1 0 ack 40 ------- 0 1.0 0.0 35 90
- 0.46984 1 0 ack 40 ------- 0 1.0 0.0 35 90
- 0.47216 0 1 tcp 1540 ------- 0 0.0 1.0 37 56
r 0.48016 1 0 ack 40 ------- 0 1.0 0.0 35 90
+ 0.48016 0 1 tcp 1540 ------- 0 0.0 1.0 55 91
r 0.48216 0 1 tcp 1540 ------- 0 0.0 1.0 36 54
+ 0.48216 1 0 ack 40 ------- 0 1.0 0.0 36 92
- 0.48216 1 0 ack 40 ------- 0 1.0 0.0 36 92
- 0.48448 0 1 tcp 1540 ------- 0 0.0 1.0 38 57
r 0.49248 1 0 ack 40 ------- 0 1.0 0.0 36 92
+ 0.49248 0 1 tcp 1540 ------- 0 0.0 1.0 56 93
r 0.49448 0 1 tcp 1540 ------- 0 0.0 1.0 37 56
+ 0.49448 1 0 ack 40 ------- 0 1.0 0.0 37 94
- 0.49448 1 0 ack 40 ------- 0 1.0 0.0 37 94
- 0.4968 0 1 tcp 1540 ------- 0 0.0 1.0 39 59
r 0.5048 1 0 ack 40 ------- 0 1.0 0.0 37 94
+ 0.5048 0 1 tcp 1540 ------- 0 0.0 1.0 57 95
r 0.5068 0 1 tcp 1540 ------- 0 0.0 1.0 38 57
+ 0.5068 1 0 ack 40 ------- 0 1.0 0.0 38 96
- 0.5068 1 0 ack 40 ------- 0 1.0 0.0 38 96
- 0.50912 0 1 tcp 1540 ------- 0 0.0 1.0 40 61
r 0.51712 1 0 ack 40 ------- 0 1.0 0.0 38 96
+ 0.51712 0 1 tcp 1540 ------- 0 0.0 1.0 58 97
r 0.51912 0 1 tcp 1540 ------- 0 0.0 1.0 39 59
+ 0.51912 1 0 ack 40 ------- 0 1.0 0.0 39 98
- 0.51912 1 0 ack 40 ------- 0 1.0 0.0 39 98
- 0.52144 0 1 tcp 1540 ------- 0 0.0 1.0 41 63
r 0.52944 1 0 ack 40 ------- 0 1.0 0.0 39 98
+ 0.52944 0 1 tcp 1540 ------- 0 0.0 1.0 59 99
r 0.53144 0 1 tcp 1540 ------- 0 0.0 1.0 40 61
+ 0.53144 1 0 ack 40 ------- 0 1.0 0.0 40 100
- 0.53144 1 0 ack 40 ------- 0 1.0 0.0 40 100
- 0.53376 0 1 tcp 1540 ------- 0 0.0 1.0 42 65
r 0.54176 1 0 ack 40 ------- 0 1.0 0.0 40 100
+ 0.54176 0 1 tcp 1540 ------- 0 0.0 1.0 60 101
r 0.54376 0 1 tcp 1540 ------- 0 0.0 1.0 41 63
+ 0.54376 1 0 ack 40 ------- 0 1.0 0.0 41 102
- 0.54376 1 0 ack 40 ------- 0 1.0 0.0 41 102
- 0.54608 0 1 tcp 1540 ------- 0 0.0 1.0 43 67
r 0.55408 1 0 ack 40 ------- 0 1.0 0.0 41 102
+ 0.55408 0 1 tcp 1540 ------- 0 0.0 1.0 61 103
r 0.55608 0 1 tcp 1540 ------- 0 0.0 1.0 42 65
+ 0.55608 1 0 ack 40 ------- 0 1.0 0.0 42 104
- 0.55608 1 0 ack 40 ------- 0 1.0 0.0 42 104
- 0.5584 0 1 tcp 1540 ------- 0 0.0 1.0 44 69
r 0.5664 1 0 ack 40 ------- 0 1.0 0.0 42 104
+ 0.5664 0 1 tcp 1540 ------- 0 0.0 1.0 62 105
r 0.5684 0 1 tcp 1540 ------- 0 0.0 1.0 43 67
+ 0.5684 1 0 ack 40 ------- 0 1.0 0.0 43 106
- 0.5684 1 0 ack 40 ------- 0 1.0 0.0 43 106
- 0.57072 0 1 tcp 1540 ------- 0 0.0 1.0 45 71
r 0.57872 1 0 ack 40 ------- 0 1.0 0.0 43 106
+ 0.57872 0 1 tcp 1540 ------- 0 0.0 1.0 63 107
r 0.58072 0 1 tcp 1540 ------- 0 0.0 1.0 44 69
+ 0.58072 1 0 ack 40 ------- 0 1.0 0.0 44 108
- 0.58072 1 0 ack 40 ------- 0 1.0 0.0 44 108
- 0.58304 0 1 tcp 1540 ------- 0 0.0 1.0 46 73
r 0.59104 1 0 ack 40 ------- 0 1.0 0.0 44 108
+ 0.59104 0 1 tcp 1540 ------- 0 0.0 1.0 64 109
r 0.59304 0 1 tcp 1540 ------- 0 0.0 1.0 45 71
+ 0.59304 1 0 ack 40 ------- 0 1.0 0.0 45 110
- 0.59304 1 0 ack 40 ------- 0 1.0 0.0 45 110
- 0.59536 0 1 tcp 1540 ------- 0 0.0 1.0 47 75
r 0.60336 1 0 ack 40 ------- 0 1.0 0.0 45 110
+ 0.60336 0 1 tcp 1540 ------- 0 0.0 1.0 65 111
r 0.60536 0 1 tcp 1540 ------- 0 0.0 1.0 46 73
+ 0.60536 1 0 ack 40 ------- 0 1.0 0.0 46 112
- 0.60536 1 0 ack 40 ------- 0 1.0 0.0 46 112
- 0.60768 0 1 tcp 1540 ------- 0 0.0 1.0 48 77
r 0.61568 1 0 ack 40 ------- 0 1.0 0.0 46 112
+ 0.61568 0 1 tcp 1540 ------- 0 0.0 1.0 66 113
r 0.61768 0 1 tcp 1540 ------- 0 0.0 1.0 47 75
+ 0.61768 1 0 ack 40 ------- 0 1.0 0.0 47 114
- 0.61768 1 0 ack 40 ------- 0 1.0 0.0 47 114
- 0.62 0 1 tcp 1540 ------- 0 0.0 1.0 49 79
r 0.628 1 0 ack 40 ------- 0 1.0 0.0 47 114
+ 0.628 0 1 tcp 1540 ------- 0 0.0 1.0 67 115
r 0.63 0 1 tcp 1540 ------- 0 0.0 1.0 48 77
+ 0.63 1 0 ack 40 ------- 0 1.0 0.0 48 116
- 0.63 1 0 ack 40 ------- 0 1.0 0.0 48 116
- 0.63232 0 1 tcp 1540 ------- 0 0.0 1.0 50 81
r 0.64032 1 0 ack 40 ------- 0 1.0 0.0 48 116
+ 0.64032 0 1 tcp 1540 ------- 0 0.0 1.0 68 117
r 0.64232 0 1 tcp 1540 ------- 0 0.0 1.0 49 79
+ 0.64232 1 0 ack 40 ------- 0 1.0 0.0 49 118
- 0.64232 1 0 ack 40 ------- 0 1.0 0.0 49 118
- 0.64464 0 1 tcp 1540 ------- 0 0.0 1.0 51 83
r 0.65264 1 0 ack 40 ------- 0 1.0 0.0 49 118
+ 0.65264 0 1 tcp 1540 ------- 0 0.0 1.0 69 119
r 0.65464 0 1 tcp 1540 ------- 0 0.0 1.0 50 81
+ 0.65464 1 0 ack 40 ------- 0 1.0 0.0 50 120
- 0.65464 1 0 ack 40 ------- 0 1.0 0.0 50 120
- 0.65696 0 1 tcp 1540 ------- 0 0.0 1.0 52 85
r 0.66496 1 0 ack 40 ------- 0 1.0 0.0 50 120
+ 0.66496 0 1 tcp 1540 ------- 0 0.0 1.0 70 121
r 0.66696 0 1 tcp 1540 ------- 0 0.0 1.0 51 83
+ 0.66696 1 0 ack 40 ------- 0 1.0 0.0 51 122
- 0.66696 1 0 ack 40 ------- 0 1.0 0.0 51 122
- 0.66928 0 1 tcp 1540 ------- 0 0.0 1.0 53 87
r 0.67728 1 0 ack 40 ------- 0 1.0 0.0 51 122
+ 0.67728 0 1 tcp 1540 ------- 0 0.0 1.0 71 123
r 0.67928 0 1 tcp 1540 ------- 0 0.0 1.0 52 85
+ 0.67928 1 0 ack 40 ------- 0 1.0 0.0 52 124
- 0.67928 1 0 ack 40 ------- 0 1.0 0.0 52 124
- 0.6816 0 1 tcp 1540 ------- 0 0.0 1.0 54 89
r 0.6896 1 0 ack 40 ------- 0 1.0 0.0 52 124
+ 0.6896 0 1 tcp 1540 ------- 0 0.0 1.0 72 125
r 0.6916 0 1 tcp 1540 ------- 0 0.0 1.0 53 87
+ 0.6916 1 0 ack 40 ------- 0 1.0 0.0 53 126
- 0.6916 1 0 ack 40 ------- 0 1.0 0.0 53 126
- 0.69392 0 1 tcp 1540 ------- 0 0.0 1.0 55 91
r 0.70192 1 0 ack 40 ------- 0 1.0 0.0 53 126
+ 0.70192 0 1 tcp 1540 ------- 0 0.0 1.0 73 127
r 0.70392 0 1 tcp 1540 ------- 0 0.0 1.0 54 89
+ 0.70392 1 0 ack 40 ------- 0 1.0 0.0 54 128
- 0.70392 1 0 ack 40 ------- 0 1.0 0.0 54 128
- 0.70624 0 1 tcp 1540 ------- 0 0.0 1.0 56 93
r 0.71424 1 0 ack 40 ------- 0 1.0 0.0 54 128
+ 0.71424 0 1 tcp 1540 ------- 0 0.0 1.0 74 129
r 0.71624 0 1 tcp 1540 ------- 0 0.0 1.0 55 91
+ 0.71624 1 0 ack 40 ------- 0 1.0 0.0 55 130
- 0.71624 1 0 ack 40 ------- 0 1.0 0.0 55 130
- 0.71856 0 1 tcp 1540 ------- 0 0.0 1.0 57 95
r 0.72656 1 0 ack 40 ------- 0 1.0 0.0 55 130
+ 0.72656 0 1 tcp 1540 ------- 0 0.0 1.0 75 131
r 0.72856 0 1 tcp 1540 ------- 0 0.0 1.0 56 93
+ 0.72856 1 0 ack 40 ------- 0 1.0 0.0 56 132
- 0.72856 1 0 ack 40 ------- 0 1.0 0.0 56 132
- 0.73088 0 1 tcp 1540 ------- 0 0.0 1.0 58 97
r 0.73888 1 0 ack 40 ------- 0 1.0 0.0 56 132
+ 0.73888 0 1 tcp 1540 ------- 0 0.0 1.0 76 133
r 0.74088 0 1 tcp 1540 ------- 0 0.0 1.0 57 95
+ 0.74088 1 0 ack 40 ------- 0 1.0 0.0 57 134
- 0.74088 1 0 ack 40 ------- 0 1.0 0.0 57 134
- 0.7432 0 1 tcp 1540 ------- 0 0.0 1.0 59 99
r 0.7512 1 0 ack 40 ------- 0 1.0 0.0 57 134
+ 0.7512 0 1 tcp 1540 ------- 0 0.0 1.0 77 135
r 0.7532 0 1 tcp 1540 ------- 0 0.0 1.0 58 97
+ 0.7532 1 0 ack 40 ------- 0 1.0 0.0 58 136
- 0.7532 1 0 ack 40 ------- 0 1.0 0.0 58 136
- 0.75552 0 1 tcp 1540 ------- 0 0.0 1.0 60 101
r 0.76352 1 0 ack 40 ------- 0 1.0 0.0 58 136
+ 0.76352 0 1 tcp 1540 ------- 0 0.0 1.0 78 137
r 0.76552 0 1 tcp 1540 ------- 0 0.0 1.0 59 99
+ 0.76552 1 0 ack 40 ------- 0 1.0 0.0 59 138
- 0.76552 1 0 ack 40 ------- 0 1.0 0.0 59 138
- 0.76784 0 1 tcp 1540 ------- 0 0.0 1.0 61 103
r 0.77584 1 0 ack 40 ------- 0 1.0 0.0 59 138
+ 0.77584 0 1 tcp 1540 ------- 0 0.0 1.0 79 139
r 0.77784 0 1 tcp 1540 ------- 0 0.0 1.0 60 101
+ 0.77784 1 0 ack 40 ------- 0 1.0 0.0 60 140
- 0.77784 1 0 ack 40 ------- 0 1.0 0.0 60 140
- 0.78016 0 1 tcp 1540 ------- 0 0.0 1.0 62 105
r 0.78816 1 0 ack 40 ------- 0 1.0 0.0 60 140
+ 0.78816 0 1 tcp 1540 ------- 0 0.0 1.0 80 141
r 0.79016 0 1 tcp 1540 ------- 0 0.0 1.0 61 103
+ 0.79016 1 0 ack 40 ------- 0 1.0 0.0 61 142
- 0.79016 1 0 ack 40 ------- 0 1.0 0.0 61 142
- 0.79248 0 1 tcp 1540 ------- 0 0.0 1.0 63 107
r 0.80048 1 0 ack 40 ------- 0 1.0 0.0 61 142
+ 0.80048 0 1 tcp 1540 ------- 0 0.0 1.0 81 143
r 0.80248 0 1 tcp 1540 ------- 0 0.0 1.0 62 105
+ 0.80248 1 0 ack 40 ------- 0 1.0 0.0 62 144
- 0.80248 1 0 ack 40 ------- 0 1.0 0.0 62 144
- 0.8048 0 1 tcp 1540 ------- 0 0.0 1.0 64 109
r 0.8128 1 0 ack 40 ------- 0 1.0 0.0 62 144
+ 0.8128 0 1 tcp 1540 ------- 0 0.0 1.0 82 145
r 0.8148 0 1 tcp 1540 ------- 0 0.0 1.0 63 107
+ 0.8148 1 0 ack 40 ------- 0 1.0 0.0 63 146
- 0.8148 1 0 ack 40 ------- 0 1.0 0.0 63 146
- 0.81712 0 1 tcp 1540 ------- 0 0.0 1.0 65 111
r 0.82512 1 0 ack 40 ------- 0 1.0 0.0 63 146
+ 0.82512 0 1 tcp 1540 ------- 0 0.0 1.0 83 147
r 0.82712 0 1 tcp 1540 ------- 0 0.0 1.0 64 109
+ 0.82712 1 0 ack 40 ------- 0 1.0 0.0 64 148
- 0.82712 1 0 ack 40 ------- 0 1.0 0.0 64 148
- 0.82944 0 1 tcp 1540 ------- 0 0.0 1.0 66 113
r 0.83744 1 0 ack 40 ------- 0 1.0 0.0 64 148
+ 0.83744 0 1 tcp 1540 ------- 0 0.0 1.0 84 149
r 0.83944 0 1 tcp 1540 ------- 0 0.0 1.0 65 111
+ 0.83944 1 0 ack 40 ------- 0 1.0 0.0 65 150
- 0.83944 1 0 ack 40 ------- 0 1.0 0.0 65 150
- 0.84176 0 1 tcp 1540 ------- 0 0.0 1.0 67 115
r 0.84976 1 0 ack 40 ------- 0 1.0 0.0 65 150
+ 0.84976 0 1 tcp 1540 ------- 0 0.0 1.0 85 151
r 0.85176 0 1 tcp 1540 ------- 0 0.0 1.0 66 113
+ 0.85176 1 0 ack 40 ------- 0 1.0 0.0 66 152
- 0.85176 1 0 ack 40 ------- 0 1.0 0.0 66 152
- 0.85408 0 1 tcp 1540 ------- 0 0.0 1.0 68 117
r 0.86208 1 0 ack 40 ------- 0 1.0 0.0 66 152
+ 0.86208 0 1 tcp 1540 ------- 0 0.0 1.0 86 153
r 0.86408 0 1 tcp 1540 ------- 0 0.0 1.0 67 115
+ 0.86408 1 0 ack 40 ------- 0 1.0 0.0 67 154
- 0.86408 1 0 ack 40 ------- 0 1.0 0.0 67 154
- 0.8664 0 1 tcp 1540 ------- 0 0.0 1.0 69 119
r 0.8744 1 0 ack 40 ------- 0 1.0 0.0 67 154
+ 0.8744 0 1 tcp 1540 ------- 0 0.0 1.0 87 155
r 0.8764 0 1 tcp 1540 ------- 0 0.0 1.0 68 117
+ 0.8764 1 0 ack 40 ------- 0 1.0 0.0 68 156
- 0.8764 1 0 ack 40 ------- 0 1.0 0.0 68 156
- 0.87872 0 1 tcp 1540 ------- 0 0.0 1.0 70 121
r 0.88672 1 0 ack 40 ------- 0 1.0 0.0 68 156
+ 0.88672 0 1 tcp 1540 ------- 0 0.0 1.0 88 157
r 0.88872 0 1 tcp 1540 ------- 0 0.0 1.0 69 119
+ 0.88872 1 0 ack 40 ------- 0 1.0 0.0 69 158
- 0.88872 1 0 ack 40 ------- 0 1.0 0.0 69 158
- 0.89104 0 1 tcp 1540 ------- 0 0.0 1.0 71 123
r 0.89904 1 0 ack 40 ------- 0 1.0 0.0 69 158
+ 0.89904 0 1 tcp 1540 ------- 0 0.0 1.0 89 159
r 0.90104 0 1 tcp 1540 ------- 0 0.0 1.0 70 121
+ 0.90104 1 0 ack 40 ------- 0 1.0 0.0 70 160
- 0.90104 1 0 ack 40 ------- 0 1.0 0.0 70 160
- 0.90336 0 1 tcp 1540 ------- 0 0.0 1.0 72 125
r 0.91136 1 0 ack 40 ------- 0 1.0 0.0 70 160
+ 0.91136 0 1 tcp 1540 ------- 0 0.0 1.0 90 161
r 0.91336 0 1 tcp 1540 ------- 0 0.0 1.0 71 123
+ 0.91336 1 0 ack 40 ------- 0 1.0 0.0 71 162
- 0.91336 1 0 ack 40 ------- 0 1.0 0.0 71 162
- 0.91568 0 1 tcp 1540 ------- 0 0.0 1.0 73 127
r 0.92368 1 0 ack 40 ------- 0 1.0 0.0 71 162
+ 0.92368 0 1 tcp 1540 ------- 0 0.0 1.0 91 163
r 0.92568 0 1 tcp 1540 ------- 0 0.0 1.0 72 125
+ 0.92568 1 0 ack 40 ------- 0 1.0 0.0 72 164
- 0.92568 1 0 ack 40 ------- 0 1.0 0.0 72 164
- 0.928 0 1 tcp 1540 ------- 0 0.0 1.0 74 129
r 0.936 1 0 ack 40 ------- 0 1.0 0.0 72 164
+ 0.936 0 1 tcp 1540 ------- 0 0.0 1.0 92 165
r 0.938 0 1 tcp 1540 ------- 0 0.0 1.0 73 127
+ 0.938 1 0 ack 40 ------- 0 1.0 0.0 73 166
- 0.938 1 0 ack 40 ------- 0 1.0 0.0 73 166
- 0.94032 0 1 tcp 1540 ------- 0 0.0 1.0 75 131
r 0.94832 1 0 ack 40 ------- 0 1.0 0.0 73 166
+ 0.94832 0 1 tcp 1540 ------- 0 0.0 1.0 93 167
r 0.95032 0 1 tcp 1540 ------- 0 0.0 1.0 74 129
+ 0.95032 1 0 ack 40 ------- 0 1.0 0.0 74 168
- 0.95032 1 0 ack 40 ------- 0 1.0 0.0 74 168
- 0.95264 0 1 tcp 1540 ------- 0 0.0 1.0 76 133
r 0.96064 1 0 ack 40 ------- 0 1.0 0.0 74 168
+ 0.96064 0 1 tcp 1540 ------- 0 0.0 1.0 94 169
r 0.96264 0 1 tcp 1540 ------- 0 0.0 1.0 75 131
+ 0.96264 1 0 ack 40 ------- 0 1.0 0.0 75 170
- 0.96264 1 0 ack 40 ------- 0 1.0 0.0 75 170
- 0.96496 0 1 tcp 1540 ------- 0 0.0 1.0 77 135
r 0.97296 1 0 ack 40 ------- 0 1.0 0.0 75 170
+ 0.97296 0 1 tcp 1540 ------- 0 0.0 1.0 95 171
r 0.97496 0 1 tcp 1540 ------- 0 0.0 1.0 76 133
+ 0.97496 1 0 ack 40 ------- 0 1.0 0.0 76 172
- 0.97496 1 0 ack 40 ------- 0 1.0 0.0 76 172
- 0.97728 0 1 tcp 1540 ------- 0 0.0 1.0 78 137
r 0.98528 1 0 ack 40 ------- 0 1.0 0.0 76 172
+ 0.98528 0 1 tcp 1540 ------- 0 0.0 1.0 96 173
r 0.98728 0 1 tcp 1540 ------- 0 0.0 1.0 77 135
+ 0.98728 1 0 ack 40 ------- 0 1.0 0.0 77 174
- 0.98728 1 0 ack 40 ------- 0 1.0 0.0 77 174
- 0.9896 0 1 tcp 1540 ------- 0 0.0 1.0 79 139
r 0.9976 1 0 ack 40 ------- 0 1.0 0.0 77 174
+ 0.9976 0 1 tcp 1540 ------- 0 0.0 1.0 97 175
r 0.9996 0 1 tcp 1540 ------- 0 0.0 1.0 78 137
+ 0.9996 1 0 ack 40 ------- 0 1.0 0.0 78 176
- 0.9996 1 0 ack 40 ------- 0 1.0 0.0 78 176
- 1.00192 0 1 tcp 1540 ------- 0 0.0 1.0 80 141
r 1.00992 1 0 ack 40 ------- 0 1.0 0.0 78 176
+ 1.00992 0 1 tcp 1540 ------- 0 0.0 1.0 98 177
r 1.01192 0 1 tcp 1540 ------- 0 0.0 1.0 79 139
+ 1.01192 1 0 ack 40 ------- 0 1.0 0.0 79 178
- 1.01192 1 0 ack 40 ------- 0 1.0 0.0 79 178
- 1.01424 0 1 tcp 1540 ------- 0 0.0 1.0 81 143
r 1.02224 1 0 ack 40 ------- 0 1.0 0.0 79 178
+ 1.02224 0 1 tcp 1540 ------- 0 0.0 1.0 99 179
r 1.02424 0 1 tcp 1540 ------- 0 0.0 1.0 80 141
+ 1.02424 1 0 ack 40 ------- 0 1.0 0.0 80 180
- 1.02424 1 0 ack 40 ------- 0 1.0 0.0 80 180
- 1.02656 0 1 tcp 1540 ------- 0 0.0 1.0 82 145
r 1.03456 1 0 ack 40 ------- 0 1.0 0.0 80 180
+ 1.03456 0 1 tcp 1540 ------- 0 0.0 1.0 100 181
r 1.03656 0 1 tcp 1540 ------- 0 0.0 1.0 81 143
+ 1.03656 1 0 ack 40 ------- 0 1.0 0.0 81 182
- 1.03656 1 0 ack 40 ------- 0 1.0 0.0 81 182
- 1.03888 0 1 tcp 1540 ------- 0 0.0 1.0 83 147
r 1.04688 1 0 ack 40 ------- 0 1.0 0.0 81 182
+ 1.04688 0 1 tcp 1540 ------- 0 0.0 1.0 101 183
r 1.04888 0 1 tcp 1540 ------- 0 0.0 1.0 82 145
+ 1.04888 1 0 ack 40 ------- 0 1.0 0.0 82 184
- 1.04888 1 0 ack 40 ------- 0 1.0 0.0 82 184
- 1.0512 0 1 tcp 1540 ------- 0 0.0 1.0 84 149
r 1.0592 1 0 ack 40 ------- 0 1.0 0.0 82 184
+ 1.0592 0 1 tcp 1540 ------- 0 0.0 1.0 102 185
r 1.0612 0 1 tcp 1540 ------- 0 0.0 1.0 83 147
+ 1.0612 1 0 ack 40 ------- 0 1.0 0.0 83 186
- 1.0612 1 0 ack 40 ------- 0 1.0 0.0 83 186
- 1.06352 0 1 tcp 1540 ------- 0 0.0 1.0 85 151
r 1.07152 1 0 ack 40 ------- 0 1.0 0.0 83 186
+ 1.07152 0 1 tcp 1540 ------- 0 0.0 1.0 103 187
r 1.07352 0 1 tcp 1540 ------- 0 0.0 1.0 84 149
+ 1.07352 1 0 ack 40 ------- 0 1.0 0.0 84 188
- 1.07352 1 0 ack 40 ------- 0 1.0 0.0 84 188
- 1.07584 0 1 tcp 1540 ------- 0 0.0 1.0 86 153
r 1.08384 1 0 ack 40 ------- 0 1.0 0.0 84 188
+ 1.08384 0 1 tcp 1540 ------- 0 0.0 1.0 104 189
r 1.08584 0 1 tcp 1540 ------- 0 0.0 1.0 85 151
+ 1.08584 1 0 ack 40 ------- 0 1.0 0.0 85 190
- 1.08584 1 0 ack 40 ------- 0 1.0 0.0 85 190
- 1.08816 0 1 tcp 1540 ------- 0 0.0 1.0 87 155
r 1.09616 1 0 ack 40 ------- 0 1.0 0.0 85 190
+ 1.09616 0 1 tcp 1540 ------- 0 0.0 1.0 105 191
r 1.09816 0 1 tcp 1540 ------- 0 0.0 1.0 86 153
+ 1.09816 1 0 ack 40 ------- 0 1.0 0.0 86 192
- 1.09816 1 0 ack 40 ------- 0 1.0 0.0 86 192
- 1.10048 0 1 tcp 1540 ------- 0 0.0 1.0 88 157
r 1.10848 1 0 ack 40 ------- 0 1.0 0.0 86 192
+ 1.10848 0 1 tcp 1540 ------- 0 0.0 1.0 106 193
r 1.11048 0 1 tcp 1540 ------- 0 0.0 1.0 87 155
+ 1.11048 1 0 ack 40 ------- 0 1.0 0.0 87 194
- 1.11048 1 0 ack 40 ------- 0 1.0 0.0 87 194
- 1.1128 0 1 tcp 1540 ------- 0 0.0 1.0 89 159
r 1.1208 1 0 ack 40 ------- 0 1.0 0.0 87 194
+ 1.1208 0 1 tcp 1540 ------- 0 0.0 1.0 107 195
r 1.1228 0 1 tcp 1540 ------- 0 0.0 1.0 88 157
+ 1.1228 1 0 ack 40 ------- 0 1.0 0.0 88 196
- 1.1228 1 0 ack 40 ------- 0 1.0 0.0 88 196
- 1.12512 0 1 tcp 1540 ------- 0 0.0 1.0 90 161
r 1.13312 1 0 ack 40 ------- 0 1.0 0.0 88 196
+ 1.13312 0 1 tcp 1540 ------- 0 0.0 1.0 108 197
r 1.13512 0 1 tcp 1540 ------- 0 0.0 1.0 89 159
+ 1.13512 1 0 ack 40 ------- 0 1.0 0.0 89 198
- 1.13512 1 0 ack 40 ------- 0 1.0 0.0 89 198
- 1.13744 0 1 tcp 1540 ------- 0 0.0 1.0 91 163
r 1.14544 1 0 ack 40 ------- 0 1.0 0.0 89 198
+ 1.14544 0 1 tcp 1540 ------- 0 0.0 1.0 109 199
r 1.14744 0 1 tcp 1540 ------- 0 0.0 1.0 90 161
+ 1.14744 1 0 ack 40 ------- 0 1.0 0.0 90 200
- 1.14744 1 0 ack 40 ------- 0 1.0 0.0 90 200
- 1.14976 0 1 tcp 1540 ------- 0 0.0 1.0 92 165
r 1.15776 1 0 ack 40 ------- 0 1.0 0.0 90 200
+ 1.15776 0 1 tcp 1540 ------- 0 0.0 1.0 110 201
r 1.15976 0 1 tcp 1540 ------- 0 0.0 1.0 91 163
+ 1.15976 1 0 ack 40 ------- 0 1.0 0.0 91 202
- 1.15976 1 0 ack 40 ------- 0 1.0 0.0 91 202
- 1.16208 0 1 tcp 1540 ------- 0 0.0 1.0 93 167
r 1.17008 1 0 ack 40 ------- 0 1.0 0.0 91 202
+ 1.17008 0 1 tcp 1540 ------- 0 0.0 1.0 111 203
r 1.17208 0 1 tcp 1540 ------- 0 0.0 1.0 92 165
+ 1.17208 1 0 ack 40 ------- 0 1.0 0.0 92 204
- 1.17208 1 0 ack 40 ------- 0 1.0 0.0 92 204
- 1.1744 0 1 tcp 1540 ------- 0 0.0 1.0 94 169
r 1.1824 1 0 ack 40 ------- 0 1.0 0.0 92 204
+ 1.1824 0 1 tcp 1540 ------- 0 0.0 1.0 112 205
r 1.1844 0 1 tcp 1540 ------- 0 0.0 1.0 93 167
+ 1.1844 1 0 ack 40 ------- 0 1.0 0.0 93 206
- 1.1844 1 0 ack 40 ------- 0 1.0 0.0 93 206
- 1.18672 0 1 tcp 1540 ------- 0 0.0 1.0 95 171
r 1.19472 1 0 ack 40 ------- 0 1.0 0.0 93 206
+ 1.19472 0 1 tcp 1540 ------- 0 0.0 1.0 113 207
r 1.19672 0 1 tcp 1540 ------- 0 0.0 1.0 94 169
+ 1.19672 1 0 ack 40 ------- 0 1.0 0.0 94 208
- 1.19672 1 0 ack 40 ------- 0 1.0 0.0 94 208
- 1.19904 0 1 tcp 1540 ------- 0 0.0 1.0 96 173
r 1.20704 1 0 ack 40 ------- 0 1.0 0.0 94 208
+ 1.20704 0 1 tcp 1540 ------- 0 0.0 1.0 114 209
r 1.20904 0 1 tcp 1540 ------- 0 0.0 1.0 95 171
+ 1.20904 1 0 ack 40 ------- 0 1.0 0.0 95 210
- 1.20904 1 0 ack 40 ------- 0 1.0 0.0 95 210
- 1.21136 0 1 tcp 1540 ------- 0 0.0 1.0 97 175
r 1.21936 1 0 ack 40 ------- 0 1.0 0.0 95 210
+ 1.21936 0 1 tcp 1540 ------- 0 0.0 1.0 115 211
r 1.22136 0 1 tcp 1540 ------- 0 0.0 1.0 96 173
+ 1.22136 1 0 ack 40 ------- 0 1.0 0.0 96 212
- 1.22136 1 0 ack 40 ------- 0 1.0 0.0 96 212
- 1.22368 0 1 tcp 1540 ------- 0 0.0 1.0 98 177
r 1.23168 1 0 ack 40 ------- 0 1.0 0.0 96 212
+ 1.23168 0 1 tcp 1540 ------- 0 0.0 1.0 116 213
r 1.23368 0 1 tcp 1540 ------- 0 0.0 1.0 97 175
+ 1.23368 1 0 ack 40 ------- 0 1.0 0.0 97 214
- 1.23368 1 0 ack 40 ------- 0 1.0 0.0 97 214
- 1.236 0 1 tcp 1540 ------- 0 0.0 1.0 99 179
r 1.244 1 0 ack 40 ------- 0 1.0 0.0 97 214
+ 1.244 0 1 tcp 1540 ------- 0 0.0 1.0 117 215
r 1.246 0 1 tcp 1540 ------- 0 0.0 1.0 98 177
+ 1.246 1 0 ack 40 ------- 0 1.0 0.0 98 216
- 1.246 1 0 ack 40 ------- 0 1.0 0.0 98 216
- 1.24832 0 1 tcp 1540 ------- 0 0.0 1.0 100 181
r 1.25632 1 0 ack 40 ------- 0 1.0 0.0 98 216
+ 1.25632 0 1 tcp 1540 ------- 0 0.0 1.0 118 217
r 1.25832 0 1 tcp 1540 ------- 0 0.0 1.0 99 179
+ 1.25832 1 0 ack 40 ------- 0 1.0 0.0 99 218
- 1.25832 1 0 ack 40 ------- 0 1.0 0.0 99 218
- 1.26064 0 1 tcp 1540 ------- 0 0.0 1.0 101 183
r 1.26864 1 0 ack 40 ------- 0 1.0 0.0 99 218
+ 1.26864 0 1 tcp 1540 ------- 0 0.0 1.0 119 219
r 1.27064 0 1 tcp 1540 ------- 0 0.0 1.0 100 181
+ 1.27064 1 0 ack 40 ------- 0 1.0 0.0 100 220
- 1.27064 1 0 ack 40 ------- 0 1.0 0.0 100 220
- 1.27296 0 1 tcp 1540 ------- 0 0.0 1.0 102 185
r 1.28096 1 0 ack 40 ------- 0 1.0 0.0 100 220
+ 1.28096 0 1 tcp 1540 ------- 0 0.0 1.0 120 221
r 1.28296 0 1 tcp 1540 ------- 0 0.0 1.0 101 183
+ 1.28296 1 0 ack 40 ------- 0 1.0 0.0 101 222
- 1.28296 1 0 ack 40 ------- 0 1.0 0.0 101 222
- 1.28528 0 1 tcp 1540 ------- 0 0.0 1.0 103 187
r 1.29328 1 0 ack 40 ------- 0 1.0 0.0 101 222
+ 1.29328 0 1 tcp 1540 ------- 0 0.0 1.0 121 223
r 1.29528 0 1 tcp 1540 ------- 0 0.0 1.0 102 185
+ 1.29528 1 0 ack 40 ------- 0 1.0 0.0 102 224
- 1.29528 1 0 ack 40 ------- 0 1.0 0.0 102 224
- 1.2976 0 1 tcp 1540 ------- 0 0.0 1.0 104 189
r 1.3056 1 0 ack 40 ------- 0 1.0 0.0 102 224
+ 1.3056 0 1 tcp 1540 ------- 0 0.0 1.0 122 225
r 1.3076 0 1 tcp 1540 ------- 0 0.0 1.0 103 187
+ 1.3076 1 0 ack 40 ------- 0 1.0 0.0 103 226
- 1.3076 1 0 ack 40 ------- 0 1.0 0.0 103 226
- 1.30992 0 1 tcp 1540 ------- 0 0.0 1.0 105 191
r 1.31792 1 0 ack 40 ------- 0 1.0 0.0 103 226
+ 1.31792 0 1 tcp 1540 ------- 0 0.0 1.0 123 227
r 1.31992 0 1 tcp 1540 ------- 0 0.0 1.0 104 189
+ 1.31992 1 0 ack 40 ------- 0 1.0 0.0 104 228